TACC:  Starting up job 2983001 
TACC:  Starting parallel tasks... 
  Input file(s): F.log.qmc.in-wfj.xml 

=====================================================
                    QMCPACK 3.6.0

       (c) Copyright 2003-  QMCPACK developers

                    Please cite:
 J. Kim et al. J. Phys. Cond. Mat. 30 195901 (2018)
      https://doi.org/10.1088/1361-648X/aab9c3

  Git branch: develop
  Last git commit: 278b2da505fe49852d465a6e4d7961918d794c87
  Last git commit date: Thu Feb 14 11:22:02 2019 -0500
  Last git commit subject: Merge pull request #1379 from ye-luo/raise-boost-version
=====================================================
  Global options 

  MPI Nodes             = 1024
  MPI Nodes per group   = 1024
  MPI Group ID          = 0
  OMP 1st level threads = 1
  OMP nested threading disabled or only 1 thread on the 2nd level

  Precision used in this calculation, see definitions in the manual:
  Base precision      = double
  Full precision      = double

  Structure-of-arrays (SoA) optimization enabled

  Input XML = F.log.qmc.in-wfj.xml

  Project = F.log
  date    = 2019-02-21 12:35:18 CST
  host    = c401-013.stampede2.tacc.utexas.edu

 Random Number
 -------------
  Offset for the random number seeds based on time: 870

  Range of prime numbers to use as seeds over processors and threads = 6779-16349


 Particle Set 
 ------------
  Name: ion0
  All the species have the same mass 1
  Particle set size: 1

 Particle Set 
 ------------
  Name: e
  All the species have the same mass 1
  Particle set size: 7

 Wavefunction setup: 
 ------------------- 
  Name: psi0
  LCAO: SoaAtomicBasisSet<MultiQuintic,0>

  Distance table for similar particles (A-A):
    source/target: e
    Using structure-of-arrays (SoA) data layout
    Distance computations use open boundary conditions in 3D.


  Distance table for dissimilar particles (A-B):
    source: ion0  target: e
    Using structure-of-arrays (SoA) data layout
    Distance computations use open boundary conditions in 3D.

Reading BasisSet from HDF5 file:F.log.orbs.h5
<input node="atomicBasisSet" name="Gaussian" expandYlm="Gamess" angular="cartesian" elementType="F" normalized="no" type="Numerical" expM="0" />
  AO BasisSet for F
   Angular momentum expanded in cartesian functions x^lx y^ly z^lz according to Gamess
   Grid is created by the input paremters in h5
    Using log grid ri = 1e-06 rf = 100 npts = 1001
   R(n,l,m,s) 0 0 0 0
   R(n,l,m,s) 1 1 0 0
   R(n,l,m,s) 2 0 0 0
   R(n,l,m,s) 3 0 0 0
   R(n,l,m,s) 4 0 0 0
   R(n,l,m,s) 5 1 0 0
   R(n,l,m,s) 6 1 0 0
   R(n,l,m,s) 7 1 0 0
   R(n,l,m,s) 8 2 0 0
   R(n,l,m,s) 9 2 0 0
   R(n,l,m,s) 10 2 0 0
   R(n,l,m,s) 11 3 0 0
   R(n,l,m,s) 12 3 0 0
   R(n,l,m,s) 13 4 0 0
Expanding Ylm (angular function) according to Gamess using cartesian gaussians
Adding 1 cartesian gaussian orbitals for l= 0
Adding 3 cartesian gaussian orbitals for l= 1
Adding 1 cartesian gaussian orbitals for l= 0
Adding 1 cartesian gaussian orbitals for l= 0
Adding 1 cartesian gaussian orbitals for l= 0
Adding 3 cartesian gaussian orbitals for l= 1
Adding 3 cartesian gaussian orbitals for l= 1
Adding 3 cartesian gaussian orbitals for l= 1
Adding 6 cartesian gaussian orbitals for l= 2
Adding 6 cartesian gaussian orbitals for l= 2
Adding 6 cartesian gaussian orbitals for l= 2
Adding 10 cartesian gaussian orbitals for l= 3
Adding 10 cartesian gaussian orbitals for l= 3
Adding 15 cartesian gaussian orbitals for l= 4
  Setting cutoff radius 9.63829

   Maximum Angular Momentum  = 4
   Number of Radial functors = 14
   Basis size                = 69

  Created SPOSet builder named 'LCAOBSet' of type molecularorbital
Reuse SPOSetBuilder "LCAOBSet" type MolecularOrbital
  Building SPOSet '' with '' basis set.
Reuse SPOSetBuilder "LCAOBSet" type MolecularOrbital
  Building SPOSet '' with '' basis set.
  Creating a determinant updet group=0 sposet=updet
  Reusing a SPO set updet
Using DiracDeterminant
Using rank-1 Sherman-Morrison Fahy update

  Creating a determinant downdet group=1 sposet=downdet
  Reusing a SPO set downdet
Using DiracDeterminant
Using rank-1 Sherman-Morrison Fahy update

  FermionWF = SlaterDet
  RadialJastrowBuilder adds a functor with cusp = -0.25
 size = 10 parameters 
 cusp = -0.25
 rcut = 6.5
Parameter     Name      Value
uu_0 0.22631 1 1  ON 0
uu_1 0.107054 1 1  ON 1
uu_2 0.0222704 1 1  ON 2
uu_3 -0.0347502 1 1  ON 3
uu_4 -0.069548 1 1  ON 4
uu_5 -0.087475 1 1  ON 5
uu_6 -0.0908766 1 1  ON 6
uu_7 -0.0827016 1 1  ON 7
uu_8 -0.0628373 1 1  ON 8
uu_9 -0.0361346 1 1  ON 9
  RadialJastrowBuilder adds a functor with cusp = -0.5
 size = 10 parameters 
 cusp = -0.5
 rcut = 6.5
Parameter     Name      Value
ud_0 0.355365 1 1  ON 0
ud_1 0.152119 1 1  ON 1
ud_2 0.036405 1 1  ON 2
ud_3 -0.035388 1 1  ON 3
ud_4 -0.0785424 1 1  ON 4
ud_5 -0.101169 1 1  ON 5
ud_6 -0.106748 1 1  ON 6
ud_7 -0.098207 1 1  ON 7
ud_8 -0.0774426 1 1  ON 8
ud_9 -0.0471069 1 1  ON 9
 size = 10 parameters 
 cusp = 0
 rcut = 6.5
Parameter     Name      Value
eF_0 -0.69195 1 1  ON 0
eF_1 -0.492771 1 1  ON 1
eF_2 -0.176576 1 1  ON 2
eF_3 0.0806708 1 1  ON 3
eF_4 0.248159 1 1  ON 4
eF_5 0.326979 1 1  ON 5
eF_6 0.335977 1 1  ON 6
eF_7 0.272672 1 1  ON 7
eF_8 0.163276 1 1  ON 8
eF_9 0.0110816 1 1  ON 9
Expected 26 parameters, but found 0 in PolynomialFunctor3D.
Parameter     Name      Value
uuF_0 0 1 1  ON 0
uuF_1 0 1 1  ON 1
uuF_2 0 1 1  ON 2
uuF_3 0 1 1  ON 3
uuF_4 0 1 1  ON 4
uuF_5 0 1 1  ON 5
uuF_6 0 1 1  ON 6
uuF_7 0 1 1  ON 7
uuF_8 0 1 1  ON 8
uuF_9 0 1 1  ON 9
uuF_10 0 1 1  ON 10
uuF_11 0 1 1  ON 11
uuF_12 0 1 1  ON 12
uuF_13 0 1 1  ON 13
uuF_14 0 1 1  ON 14
uuF_15 0 1 1  ON 15
uuF_16 0 1 1  ON 16
uuF_17 0 1 1  ON 17
uuF_18 0 1 1  ON 18
uuF_19 0 1 1  ON 19
uuF_20 0 1 1  ON 20
uuF_21 0 1 1  ON 21
uuF_22 0 1 1  ON 22
uuF_23 0 1 1  ON 23
uuF_24 0 1 1  ON 24
uuF_25 0 1 1  ON 25
Expected 26 parameters, but found 0 in PolynomialFunctor3D.
Parameter     Name      Value
udF_0 0 1 1  ON 0
udF_1 0 1 1  ON 1
udF_2 0 1 1  ON 2
udF_3 0 1 1  ON 3
udF_4 0 1 1  ON 4
udF_5 0 1 1  ON 5
udF_6 0 1 1  ON 6
udF_7 0 1 1  ON 7
udF_8 0 1 1  ON 8
udF_9 0 1 1  ON 9
udF_10 0 1 1  ON 10
udF_11 0 1 1  ON 11
udF_12 0 1 1  ON 12
udF_13 0 1 1  ON 13
udF_14 0 1 1  ON 14
udF_15 0 1 1  ON 15
udF_16 0 1 1  ON 16
udF_17 0 1 1  ON 17
udF_18 0 1 1  ON 18
udF_19 0 1 1  ON 19
udF_20 0 1 1  ON 20
udF_21 0 1 1  ON 21
udF_22 0 1 1  ON 22
udF_23 0 1 1  ON 23
udF_24 0 1 1  ON 24
udF_25 0 1 1  ON 25
  QMCHamiltonian::addOperator Kinetic to H, physical Hamiltonian 
  QMCHamiltonian::addOperator ElecElec to H, physical Hamiltonian 
QMCHamiltonian::addOperatorType added type coulomb named ElecElec
  CoulombAA for ion0 is not created.  Number of particles == 1 and nonPeriodic

  ECPotential builder for pseudopotential 

  Adding pseudopotential for F
   Linear grid  ri=0 rf=10 npts = 10001
    ECPComponentBuilder::buildSemiLocalAndLocal 
    Assuming Hartree unit
   Number of angular momentum channels 2
   Maximum angular momentum channel 1
   Creating a Linear Grid Rmax=1.03
  Using global grid with delta = 0.001
   Making L=1 a local potential with a radial cutoff of 9.999
    Non-local pseudopotential parameters
    Maximum angular mementum = 0
    Number of non-local channels = 1
       l(0)=0
    Cutoff radius = 1.03
    Spherical grids and weights: 
                        1                 0                 0       0.08333333333
                       -1   1.224646799e-16                 0       0.08333333333
             0.4472135955       0.894427191                 0       0.08333333333
            -0.4472135955      0.7236067977      0.5257311121       0.08333333333
             0.4472135955      0.2763932023      0.8506508084       0.08333333333
            -0.4472135955     -0.2763932023      0.8506508084       0.08333333333
             0.4472135955     -0.7236067977      0.5257311121       0.08333333333
            -0.4472135955      -0.894427191   1.095357397e-16       0.08333333333
             0.4472135955     -0.7236067977     -0.5257311121       0.08333333333
            -0.4472135955     -0.2763932023     -0.8506508084       0.08333333333
             0.4472135955      0.2763932023     -0.8506508084       0.08333333333
            -0.4472135955      0.7236067977     -0.5257311121       0.08333333333
    Maximum cutoff radius 1.03
  QMCHamiltonian::addOperator LocalECP to H, physical Hamiltonian 

  Using NonLocalECP potential 
    Maximum grid on a sphere for NonLocalECPotential: 12
  QMCHamiltonian::addOperator NonLocalECP to H, physical Hamiltonian 
QMCHamiltonian::addOperatorType added type pseudo named PseudoPot

  QMCHamiltonian::add2WalkerProperty added
    4 to P::PropertyList 
    0 to P::Collectables 
    starting Index of the observables in P::PropertyList = 9
ParticleSetPool::randomize 
<init source="ion0" target="e">
</init>
  Initialization Execution time = 0.306 secs
=========================================================
 Summary of QMC systems 
=========================================================
ParticleSetPool has: 

  ParticleSet e : 0 4 7 

    7

    u -1.7088316253e+00  2.9685521889e+00 -1.4596669824e+00
    u  2.8889524439e-01  1.7584235117e+00 -6.5161006552e-01
    u  2.5141707368e-02 -2.1162731366e+00 -1.8732455763e-01
    u  7.2468904328e-01 -1.3006352065e+00 -1.0646912549e+00
    d -1.1491963104e+00 -9.8587308753e-01  1.0007044758e+00
    d -2.2491116704e+00 -1.2505439292e+00  1.5009165029e+00
    d  1.1117754799e+00  3.7612889595e-02  4.6168255806e-01

  ParticleSet ion0 : 0 1 

    1

    F  0.0000000000e+00  0.0000000000e+00  0.0000000000e+00

  Hamiltonian h0
  Kinetic         Kinetic energy
  ElecElec        CoulombAA source/target e

  LocalECP        LocalECPotential: ion0
  NonLocalECP     NonLocalECPotential: ion0

=========================================================
  Start VMC
  File Root F.log.s000 append = no 
=========================================================
  Adding 1 walkers to 0 existing sets
  Total number of walkers: 1.0240000000e+03
  Total weight: 1.0240000000e+03
  Resetting Properties of the walkers 1 x 13

<vmc function="put">
  qmc_counter=0  my_counter=0
  time step      = 1.5000000000e-01
  blocks         = 200
  steps          = 1
  substeps       = 5
  current        = 0
  target samples = 1.0240000000e+03
  walkers/mpi    = 1

  stepsbetweensamples = 200
<parameter name="blocks" condition="int">200</parameter>
<parameter name="blocks_between_recompute" condition="int">0</parameter>
<parameter name="check_properties" condition="int">100</parameter>
<parameter name="checkproperties" condition="int">100</parameter>
<parameter name="current" condition="int">0</parameter>
<parameter name="dmcwalkersperthread" condition="real">1.0000000000e+00</parameter>
<parameter name="maxcpusecs" condition="real">3.6000000000e+05</parameter>
<parameter name="record_configs" condition="int">0</parameter>
<parameter name="record_walkers" condition="int">200</parameter>
<parameter name="recordconfigs" condition="int">0</parameter>
<parameter name="recordwalkers" condition="int">200</parameter>
<parameter name="rewind" condition="int">0</parameter>
<parameter name="samples" condition="real">1.0240000000e+03</parameter>
<parameter name="samplesperthread" condition="real">1.0000000000e+00</parameter>
<parameter name="steps" condition="int">1</parameter>
<parameter name="stepsbetweensamples" condition="int">200</parameter>
<parameter name="store_configs" condition="int">0</parameter>
<parameter name="storeconfigs" condition="int">0</parameter>
<parameter name="sub_steps" condition="int">5</parameter>
<parameter name="substeps" condition="int">5</parameter>
<parameter name="tau" condition="au">1.5000000000e-01</parameter>
<parameter name="time_step" condition="au">1.5000000000e-01</parameter>
<parameter name="timestep" condition="au">1.5000000000e-01</parameter>
<parameter name="use_drift" condition="string">no</parameter>
<parameter name="usedrift" condition="string">no</parameter>
<parameter name="walkers" condition="int">1</parameter>
<parameter name="warmup_steps" condition="int">100</parameter>
<parameter name="warmupsteps" condition="int">100</parameter>
  DumpConfig==false Nothing (configurations, state) will be saved.
  Walker Samples are dumped every 200 steps.
</vmc>
  Initial partition of walkers 0 1 

  Using Particle by Particle moves
  Walker moves without drift
  Total Sample Size   =1024
  Walker distribution on root = 0 1 
  Using Locality Approximation
===== Memory Usage after the buffer registration =====
Available memory on node 0, free + buffers : 83500 MB
Memory footprint by rank 0 on node 0       : 72 MB
==================================================
  Anonymous Buffer size per walker : 2688 Bytes.
MEMORY increase 0 MB VMC::resetRun
====================================================
  SimpleFixedNodeBranch::finalize after a VMC block
    QMC counter        = 0
    time step          = 0.15
    reference energy   = -24.1552
    reference variance = 0.614119
====================================================
  QMC Execution time = 1.5660e+00 secs
Loop execution max-interations = 20

=========================================================
  Start QMCFixedSampleLinearOptimize
  File Root F.log.s001 append = no 
=========================================================
  Skip QMCDriver::putQMCInfo 
  Resetting Properties of the walkers 1 x 13

=========================================================
  Start VMC
  File Root F.log.s001 append = no 
=========================================================
  Using the current 1 walkers.
  Total number of walkers: 1.0240e+03
  Total weight: 1.0240e+03
  Resetting Properties of the walkers 1 x 13

<vmc function="put">
  qmc_counter=0  my_counter=0
  time step      = 1.5000e-01
  blocks         = 300
  steps          = 2
  substeps       = 5
  current        = 0
  target samples = 5.1200e+05
  walkers/mpi    = 1

  stepsbetweensamples = 1
<parameter name="blocks" condition="int">300</parameter>
<parameter name="blocks_between_recompute" condition="int">0</parameter>
<parameter name="check_properties" condition="int">100</parameter>
<parameter name="checkproperties" condition="int">100</parameter>
<parameter name="current" condition="int">0</parameter>
<parameter name="dmcwalkersperthread" condition="real">5.0000e+02</parameter>
<parameter name="maxcpusecs" condition="real">3.6000e+05</parameter>
<parameter name="record_configs" condition="int">0</parameter>
<parameter name="record_walkers" condition="int">1</parameter>
<parameter name="recordconfigs" condition="int">0</parameter>
<parameter name="recordwalkers" condition="int">1</parameter>
<parameter name="rewind" condition="int">0</parameter>
<parameter name="samples" condition="real">5.1200e+05</parameter>
<parameter name="samplesperthread" condition="real">5.0000e+02</parameter>
<parameter name="steps" condition="int">2</parameter>
<parameter name="stepsbetweensamples" condition="int">1</parameter>
<parameter name="store_configs" condition="int">0</parameter>
<parameter name="storeconfigs" condition="int">0</parameter>
<parameter name="sub_steps" condition="int">5</parameter>
<parameter name="substeps" condition="int">5</parameter>
<parameter name="tau" condition="au">1.5000e-01</parameter>
<parameter name="time_step" condition="au">1.5000e-01</parameter>
<parameter name="timestep" condition="au">1.5000e-01</parameter>
<parameter name="use_drift" condition="string">no</parameter>
<parameter name="usedrift" condition="string">no</parameter>
<parameter name="walkers" condition="int">1</parameter>
<parameter name="warmup_steps" condition="int">0</parameter>
<parameter name="warmupsteps" condition="int">0</parameter>
  DumpConfig==false Nothing (configurations, state) will be saved.
  Walker Samples are dumped every 1 steps.
</vmc>
    Restarting, cummulative properties:
      energy     = -2.4155e+01
      variance   = 0.0000e+00
      r2accepted = 1.0000e-10
      r2proposed = 1.0000e-10
 Using QMCCostFunction::QMCCostFunction
  EstimatorManagerBase::add replace LocalEnergy estimator.
<optimization-report>
<vmc stage="main" blocks="300">
  Cannot make clones again. Use existing 1 clones
  Initial partition of walkers 0 1 

  Using Particle by Particle moves
  Walker moves without drift
  Total Sample Size   =512000
  Walker distribution on root = 0 1 
  Using Locality Approximation
===== Memory Usage after the buffer registration =====
Available memory on node 0, free + buffers : 83441 MB
Memory footprint by rank 0 on node 0       : 73 MB
==================================================
  Anonymous Buffer size per walker : 2688 Bytes.
MEMORY increase 0 MB VMC::resetRun
====================================================
  SimpleFixedNodeBranch::finalize after a VMC block
    QMC counter        = 1
    time step          = 0.15
    reference energy   = -24.1717
    reference variance = 0.461306
====================================================
  Execution time = 3.3664e+00
</vmc>
<opt stage="setup">
  <log>
   Reading configurations from h5FileRoot F.log.s001
  QMCCostFunction is created with 1 threads.
  Using Nonlocal PP in Opt: NonLocalECP
   Number of samples loaded to each thread : 500 
  VMC Eavg = -2.4158e+01
  VMC Evar = 4.6155e-01
  Total weights = 5.1200e+05
  Execution time = 1.3416e+00
  </log>
</opt>
<opt stage="main" walkers="512000">
  <log>

*****************************************
Building overlap and Hamiltonian matrices
*****************************************

Among totally 82 optimized parameters, largest LM parameter change : 1.5227e-01 at parameter 21

******************************************************************************
Init Cost =  -2.2927e+01    New Cost =  -2.2945e+01  Delta Cost =  -1.7722e-02
******************************************************************************

The new set of parameters is valid. Updating the trial wave function!

*****************************************************************************
Applying the update for shift_i =   1.0000e-02     and shift_s =   2.5000e-01
*****************************************************************************
  Execution time = 5.8846e+00
  </log>
  <optVariables href="F.log.s001.opt.xml">
uu_0 2.0898e-01 1 1  ON 0
uu_1 9.6106e-02 1 1  ON 1
uu_2 1.9429e-02 1 1  ON 2
uu_3 -2.6296e-02 1 1  ON 3
uu_4 -5.9848e-02 1 1  ON 4
uu_5 -8.0532e-02 1 1  ON 5
uu_6 -8.7088e-02 1 1  ON 6
uu_7 -8.3571e-02 1 1  ON 7
uu_8 -6.3383e-02 1 1  ON 8
uu_9 -3.3104e-02 1 1  ON 9
ud_0 3.7887e-01 1 1  ON 10
ud_1 1.5641e-01 1 1  ON 11
ud_2 2.7260e-02 1 1  ON 12
ud_3 -4.3169e-02 1 1  ON 13
ud_4 -8.0680e-02 1 1  ON 14
ud_5 -9.7922e-02 1 1  ON 15
ud_6 -1.0372e-01 1 1  ON 16
ud_7 -1.0194e-01 1 1  ON 17
ud_8 -8.2639e-02 1 1  ON 18
ud_9 -5.0179e-02 1 1  ON 19
eF_0 -7.6165e-01 1 1  ON 20
eF_1 -6.4504e-01 1 1  ON 21
eF_2 -2.2650e-01 1 1  ON 22
eF_3 1.8427e-01 1 1  ON 23
eF_4 3.7137e-01 1 1  ON 24
eF_5 3.2361e-01 1 1  ON 25
eF_6 3.4941e-01 1 1  ON 26
eF_7 2.9182e-01 1 1  ON 27
eF_8 1.7818e-01 1 1  ON 28
eF_9 1.6004e-02 1 1  ON 29
uuF_0 4.1645e-04 1 1  ON 30
uuF_1 1.4436e-04 1 1  ON 31
uuF_2 -5.6717e-04 1 1  ON 32
uuF_3 -6.6095e-04 1 1  ON 33
uuF_4 -2.3988e-04 1 1  ON 34
uuF_5 3.5610e-05 1 1  ON 35
uuF_6 -5.1657e-04 1 1  ON 36
uuF_7 8.2733e-05 1 1  ON 37
uuF_8 1.5220e-04 1 1  ON 38
uuF_9 6.9953e-05 1 1  ON 39
uuF_10 -6.8644e-04 1 1  ON 40
uuF_11 9.3139e-04 1 1  ON 41
uuF_12 -2.6802e-04 1 1  ON 42
uuF_13 9.5714e-04 1 1  ON 43
uuF_14 3.3870e-04 1 1  ON 44
uuF_15 -1.5954e-05 1 1  ON 45
uuF_16 -5.6769e-04 1 1  ON 46
uuF_17 2.4534e-03 1 1  ON 47
uuF_18 -2.3631e-03 1 1  ON 48
uuF_19 4.7120e-04 1 1  ON 49
uuF_20 -3.5585e-04 1 1  ON 50
uuF_21 4.2296e-04 1 1  ON 51
uuF_22 -1.0941e-04 1 1  ON 52
uuF_23 1.7306e-04 1 1  ON 53
uuF_24 -1.5193e-04 1 1  ON 54
uuF_25 4.0258e-05 1 1  ON 55
udF_0 -1.5619e-04 1 1  ON 56
udF_1 4.5640e-04 1 1  ON 57
udF_2 1.1145e-03 1 1  ON 58
udF_3 -3.4744e-04 1 1  ON 59
udF_4 -4.2330e-04 1 1  ON 60
udF_5 -5.0165e-06 1 1  ON 61
udF_6 1.2412e-03 1 1  ON 62
udF_7 -8.5015e-05 1 1  ON 63
udF_8 1.5472e-03 1 1  ON 64
udF_9 -6.4939e-04 1 1  ON 65
udF_10 -2.5913e-04 1 1  ON 66
udF_11 -4.5561e-04 1 1  ON 67
udF_12 -6.2350e-04 1 1  ON 68
udF_13 5.6992e-04 1 1  ON 69
udF_14 4.7858e-04 1 1  ON 70
udF_15 1.2397e-05 1 1  ON 71
udF_16 6.7561e-04 1 1  ON 72
udF_17 1.2798e-03 1 1  ON 73
udF_18 -1.1095e-03 1 1  ON 74
udF_19 5.2667e-04 1 1  ON 75
udF_20 -5.8416e-04 1 1  ON 76
udF_21 3.0820e-04 1 1  ON 77
udF_22 -1.1552e-04 1 1  ON 78
udF_23 3.9323e-04 1 1  ON 79
udF_24 -1.9009e-04 1 1  ON 80
udF_25 4.9834e-05 1 1  ON 81
  </optVariables>
   Restore the number of walkers to 1, removing 0 walkers.
</opt>
</optimization-report>
  QMC Execution time = 5.8974e+00 secs
  Reusing QMCFixedSampleLinearOptimize
 Using QMCCostFunction::QMCCostFunction

=========================================================
  Start QMCFixedSampleLinearOptimize
  File Root F.log.s002 append = no 
=========================================================
  Skip QMCDriver::putQMCInfo 
  Resetting Properties of the walkers 1 x 13

=========================================================
  Start VMC
  File Root F.log.s002 append = no 
=========================================================
Using existing walkers 
  Resetting Properties of the walkers 1 x 13

<vmc function="put">
  qmc_counter=1  my_counter=1
  time step      = 1.5000e-01
  blocks         = 300
  steps          = 2
  substeps       = 5
  current        = 0
  target samples = 5.1200e+05
  walkers/mpi    = 1

  stepsbetweensamples = 1
<parameter name="blocks" condition="int">300</parameter>
<parameter name="blocks_between_recompute" condition="int">0</parameter>
<parameter name="check_properties" condition="int">100</parameter>
<parameter name="checkproperties" condition="int">100</parameter>
<parameter name="current" condition="int">0</parameter>
<parameter name="dmcwalkersperthread" condition="real">5.0000e+02</parameter>
<parameter name="maxcpusecs" condition="real">3.6000e+05</parameter>
<parameter name="record_configs" condition="int">0</parameter>
<parameter name="record_walkers" condition="int">1</parameter>
<parameter name="recordconfigs" condition="int">0</parameter>
<parameter name="recordwalkers" condition="int">1</parameter>
<parameter name="rewind" condition="int">0</parameter>
<parameter name="samples" condition="real">5.1200e+05</parameter>
<parameter name="samplesperthread" condition="real">5.0000e+02</parameter>
<parameter name="steps" condition="int">2</parameter>
<parameter name="stepsbetweensamples" condition="int">1</parameter>
<parameter name="store_configs" condition="int">0</parameter>
<parameter name="storeconfigs" condition="int">0</parameter>
<parameter name="sub_steps" condition="int">5</parameter>
<parameter name="substeps" condition="int">5</parameter>
<parameter name="tau" condition="au">1.5000e-01</parameter>
<parameter name="time_step" condition="au">1.5000e-01</parameter>
<parameter name="timestep" condition="au">1.5000e-01</parameter>
<parameter name="use_drift" condition="string">no</parameter>
<parameter name="usedrift" condition="string">no</parameter>
<parameter name="walkers" condition="int">1</parameter>
<parameter name="warmup_steps" condition="int">0</parameter>
<parameter name="warmupsteps" condition="int">0</parameter>
  DumpConfig==false Nothing (configurations, state) will be saved.
  Walker Samples are dumped every 1 steps.
</vmc>
  EstimatorManagerBase::add replace LocalEnergy estimator.
  EstimatorManagerBase::add replace LocalEnergy estimator.
<optimization-report>
<vmc stage="main" blocks="300">
  Cannot make clones again. Use existing 1 clones
  Initial partition of walkers 0 1 
  Using Particle by Particle moves
  Walker moves without drift
  Total Sample Size   =512000
  Walker distribution on root = 0 1 
  Using Locality Approximation
===== Memory Usage after the buffer registration =====
Available memory on node 0, free + buffers : 82324 MB
Memory footprint by rank 0 on node 0       : 94 MB
==================================================
====================================================
  SimpleFixedNodeBranch::finalize after a VMC block
    QMC counter        = 2
    time step          = 0.15
    reference energy   = -24.1473
    reference variance = 0.333867
====================================================
  Execution time = 3.3033e+00
</vmc>
<opt stage="setup">
  <log>
   Reading configurations from h5FileRoot F.log.s002
  QMCCostFunction is created with 1 threads.
  Using Nonlocal PP in Opt: NonLocalECP
   Number of samples loaded to each thread : 500 
  VMC Eavg = -2.4169e+01
  VMC Evar = 3.2673e-01
  Total weights = 5.1200e+05
  Execution time = 1.2901e+00
  </log>
</opt>
<opt stage="main" walkers="512000">
  <log>

*****************************************
Building overlap and Hamiltonian matrices
*****************************************

Among totally 82 optimized parameters, largest LM parameter change : 1.0384e-01 at parameter 21

******************************************************************************
Init Cost =  -2.2944e+01    New Cost =  -2.2945e+01  Delta Cost =  -9.7691e-04
******************************************************************************

The new set of parameters is valid. Updating the trial wave function!

*****************************************************************************
Applying the update for shift_i =   1.0000e-02     and shift_s =   6.2500e-02
*****************************************************************************
  Execution time = 5.7215e+00
  </log>
  <optVariables href="F.log.s002.opt.xml">
uu_0 1.9549e-01 1 1  ON 0
uu_1 8.3262e-02 1 1  ON 1
uu_2 1.3093e-02 1 1  ON 2
uu_3 -2.4256e-02 1 1  ON 3
uu_4 -5.2946e-02 1 1  ON 4
uu_5 -7.2023e-02 1 1  ON 5
uu_6 -7.9176e-02 1 1  ON 6
uu_7 -7.9688e-02 1 1  ON 7
uu_8 -6.2181e-02 1 1  ON 8
uu_9 -3.2204e-02 1 1  ON 9
ud_0 3.8080e-01 1 1  ON 10
ud_1 1.5609e-01 1 1  ON 11
ud_2 2.5802e-02 1 1  ON 12
ud_3 -4.2564e-02 1 1  ON 13
ud_4 -7.7133e-02 1 1  ON 14
ud_5 -9.2515e-02 1 1  ON 15
ud_6 -9.8226e-02 1 1  ON 16
ud_7 -1.0067e-01 1 1  ON 17
ud_8 -8.4242e-02 1 1  ON 18
ud_9 -5.5543e-02 1 1  ON 19
eF_0 -8.3526e-01 1 1  ON 20
eF_1 -7.4888e-01 1 1  ON 21
eF_2 -2.6890e-01 1 1  ON 22
eF_3 2.4655e-01 1 1  ON 23
eF_4 4.6132e-01 1 1  ON 24
eF_5 3.3594e-01 1 1  ON 25
eF_6 3.6812e-01 1 1  ON 26
eF_7 3.1063e-01 1 1  ON 27
eF_8 1.9452e-01 1 1  ON 28
eF_9 2.1268e-02 1 1  ON 29
uuF_0 4.7484e-04 1 1  ON 30
uuF_1 2.0653e-04 1 1  ON 31
uuF_2 -6.9265e-04 1 1  ON 32
uuF_3 -7.1126e-04 1 1  ON 33
uuF_4 -2.8558e-04 1 1  ON 34
uuF_5 5.7781e-05 1 1  ON 35
uuF_6 -4.9823e-04 1 1  ON 36
uuF_7 1.3517e-04 1 1  ON 37
uuF_8 6.1264e-05 1 1  ON 38
uuF_9 1.2329e-05 1 1  ON 39
uuF_10 -7.8270e-04 1 1  ON 40
uuF_11 1.1072e-03 1 1  ON 41
uuF_12 -3.1423e-04 1 1  ON 42
uuF_13 1.0111e-03 1 1  ON 43
uuF_14 4.0285e-04 1 1  ON 44
uuF_15 -2.1466e-05 1 1  ON 45
uuF_16 -3.3369e-04 1 1  ON 46
uuF_17 2.6930e-03 1 1  ON 47
uuF_18 -2.7262e-03 1 1  ON 48
uuF_19 6.1065e-04 1 1  ON 49
uuF_20 -4.8892e-04 1 1  ON 50
uuF_21 4.5488e-04 1 1  ON 51
uuF_22 -1.3026e-04 1 1  ON 52
uuF_23 2.5618e-04 1 1  ON 53
uuF_24 -1.7445e-04 1 1  ON 54
uuF_25 4.4242e-05 1 1  ON 55
udF_0 -1.5889e-04 1 1  ON 56
udF_1 5.1906e-04 1 1  ON 57
udF_2 1.1576e-03 1 1  ON 58
udF_3 -3.7835e-04 1 1  ON 59
udF_4 -4.7214e-04 1 1  ON 60
udF_5 2.7256e-05 1 1  ON 61
udF_6 1.2914e-03 1 1  ON 62
udF_7 -2.9047e-05 1 1  ON 63
udF_8 1.6296e-03 1 1  ON 64
udF_9 -6.4011e-04 1 1  ON 65
udF_10 -2.9246e-04 1 1  ON 66
udF_11 -4.9733e-04 1 1  ON 67
udF_12 -7.1342e-04 1 1  ON 68
udF_13 5.3763e-04 1 1  ON 69
udF_14 5.4822e-04 1 1  ON 70
udF_15 1.5276e-05 1 1  ON 71
udF_16 7.6212e-04 1 1  ON 72
udF_17 1.2890e-03 1 1  ON 73
udF_18 -1.0650e-03 1 1  ON 74
udF_19 6.2143e-04 1 1  ON 75
udF_20 -5.9176e-04 1 1  ON 76
udF_21 2.5285e-04 1 1  ON 77
udF_22 -1.2031e-04 1 1  ON 78
udF_23 4.0092e-04 1 1  ON 79
udF_24 -1.7759e-04 1 1  ON 80
udF_25 4.6108e-05 1 1  ON 81
  </optVariables>
   Restore the number of walkers to 1, removing 0 walkers.
</opt>
</optimization-report>
  QMC Execution time = 5.7341e+00 secs
  Reusing QMCFixedSampleLinearOptimize
 Using QMCCostFunction::QMCCostFunction

=========================================================
  Start QMCFixedSampleLinearOptimize
  File Root F.log.s003 append = no 
=========================================================
  Skip QMCDriver::putQMCInfo 
  Resetting Properties of the walkers 1 x 13

=========================================================
  Start VMC
  File Root F.log.s003 append = no 
=========================================================
Using existing walkers 
  Resetting Properties of the walkers 1 x 13

<vmc function="put">
  qmc_counter=2  my_counter=2
  time step      = 1.5000e-01
  blocks         = 300
  steps          = 2
  substeps       = 5
  current        = 0
  target samples = 5.1200e+05
  walkers/mpi    = 1

  stepsbetweensamples = 1
<parameter name="blocks" condition="int">300</parameter>
<parameter name="blocks_between_recompute" condition="int">0</parameter>
<parameter name="check_properties" condition="int">100</parameter>
<parameter name="checkproperties" condition="int">100</parameter>
<parameter name="current" condition="int">0</parameter>
<parameter name="dmcwalkersperthread" condition="real">5.0000e+02</parameter>
<parameter name="maxcpusecs" condition="real">3.6000e+05</parameter>
<parameter name="record_configs" condition="int">0</parameter>
<parameter name="record_walkers" condition="int">1</parameter>
<parameter name="recordconfigs" condition="int">0</parameter>
<parameter name="recordwalkers" condition="int">1</parameter>
<parameter name="rewind" condition="int">0</parameter>
<parameter name="samples" condition="real">5.1200e+05</parameter>
<parameter name="samplesperthread" condition="real">5.0000e+02</parameter>
<parameter name="steps" condition="int">2</parameter>
<parameter name="stepsbetweensamples" condition="int">1</parameter>
<parameter name="store_configs" condition="int">0</parameter>
<parameter name="storeconfigs" condition="int">0</parameter>
<parameter name="sub_steps" condition="int">5</parameter>
<parameter name="substeps" condition="int">5</parameter>
<parameter name="tau" condition="au">1.5000e-01</parameter>
<parameter name="time_step" condition="au">1.5000e-01</parameter>
<parameter name="timestep" condition="au">1.5000e-01</parameter>
<parameter name="use_drift" condition="string">no</parameter>
<parameter name="usedrift" condition="string">no</parameter>
<parameter name="walkers" condition="int">1</parameter>
<parameter name="warmup_steps" condition="int">0</parameter>
<parameter name="warmupsteps" condition="int">0</parameter>
  DumpConfig==false Nothing (configurations, state) will be saved.
  Walker Samples are dumped every 1 steps.
</vmc>
  EstimatorManagerBase::add replace LocalEnergy estimator.
  EstimatorManagerBase::add replace LocalEnergy estimator.
<optimization-report>
<vmc stage="main" blocks="300">
  Cannot make clones again. Use existing 1 clones
  Initial partition of walkers 0 1 
  Using Particle by Particle moves
  Walker moves without drift
  Total Sample Size   =512000
  Walker distribution on root = 0 1 
  Using Locality Approximation
===== Memory Usage after the buffer registration =====
Available memory on node 0, free + buffers : 82320 MB
Memory footprint by rank 0 on node 0       : 96 MB
==================================================
====================================================
  SimpleFixedNodeBranch::finalize after a VMC block
    QMC counter        = 3
    time step          = 0.15
    reference energy   = -24.178
    reference variance = 0.395629
====================================================
  Execution time = 3.2875e+00
</vmc>
<opt stage="setup">
  <log>
   Reading configurations from h5FileRoot F.log.s003
  QMCCostFunction is created with 1 threads.
  Using Nonlocal PP in Opt: NonLocalECP
   Number of samples loaded to each thread : 500 
  VMC Eavg = -2.4170e+01
  VMC Evar = 3.3228e-01
  Total weights = 5.1200e+05
  Execution time = 1.2914e+00
  </log>
</opt>
<opt stage="main" walkers="512000">
  <log>

*****************************************
Building overlap and Hamiltonian matrices
*****************************************

Among totally 82 optimized parameters, largest LM parameter change : 6.9117e-02 at parameter 21

******************************************************************************
Init Cost =  -2.2945e+01    New Cost =  -2.2945e+01  Delta Cost =  -4.0449e-04
******************************************************************************

The new set of parameters is valid. Updating the trial wave function!

*****************************************************************************
Applying the update for shift_i =   1.0000e-02     and shift_s =   1.5625e-02
*****************************************************************************
  Execution time = 5.6805e+00
  </log>
  <optVariables href="F.log.s003.opt.xml">
uu_0 1.8023e-01 1 1  ON 0
uu_1 7.0706e-02 1 1  ON 1
uu_2 5.7239e-03 1 1  ON 2
uu_3 -2.5750e-02 1 1  ON 3
uu_4 -4.9051e-02 1 1  ON 4
uu_5 -6.6423e-02 1 1  ON 5
uu_6 -7.3369e-02 1 1  ON 6
uu_7 -7.4308e-02 1 1  ON 7
uu_8 -5.8260e-02 1 1  ON 8
uu_9 -2.8974e-02 1 1  ON 9
ud_0 3.7561e-01 1 1  ON 10
ud_1 1.5201e-01 1 1  ON 11
ud_2 2.4511e-02 1 1  ON 12
ud_3 -4.1017e-02 1 1  ON 13
ud_4 -7.3191e-02 1 1  ON 14
ud_5 -8.6975e-02 1 1  ON 15
ud_6 -9.1516e-02 1 1  ON 16
ud_7 -9.6783e-02 1 1  ON 17
ud_8 -8.6104e-02 1 1  ON 18
ud_9 -5.4853e-02 1 1  ON 19
eF_0 -8.9876e-01 1 1  ON 20
eF_1 -8.1799e-01 1 1  ON 21
eF_2 -3.0109e-01 1 1  ON 22
eF_3 2.7337e-01 1 1  ON 23
eF_4 5.1165e-01 1 1  ON 24
eF_5 3.5492e-01 1 1  ON 25
eF_6 3.8712e-01 1 1  ON 26
eF_7 3.3245e-01 1 1  ON 27
eF_8 2.1692e-01 1 1  ON 28
eF_9 3.0538e-02 1 1  ON 29
uuF_0 4.8245e-04 1 1  ON 30
uuF_1 2.7763e-04 1 1  ON 31
uuF_2 -7.0227e-04 1 1  ON 32
uuF_3 -7.7106e-04 1 1  ON 33
uuF_4 -3.5847e-04 1 1  ON 34
uuF_5 8.2663e-05 1 1  ON 35
uuF_6 -3.8559e-04 1 1  ON 36
uuF_7 -2.3453e-06 1 1  ON 37
uuF_8 1.3825e-04 1 1  ON 38
uuF_9 -3.6659e-05 1 1  ON 39
uuF_10 -8.9510e-04 1 1  ON 40
uuF_11 1.2234e-03 1 1  ON 41
uuF_12 -4.5670e-04 1 1  ON 42
uuF_13 1.1092e-03 1 1  ON 43
uuF_14 4.9142e-04 1 1  ON 44
uuF_15 -1.3029e-05 1 1  ON 45
uuF_16 -1.8762e-04 1 1  ON 46
uuF_17 2.8432e-03 1 1  ON 47
uuF_18 -2.8137e-03 1 1  ON 48
uuF_19 7.8341e-04 1 1  ON 49
uuF_20 -5.8309e-04 1 1  ON 50
uuF_21 4.0210e-04 1 1  ON 51
uuF_22 -1.4958e-04 1 1  ON 52
uuF_23 3.0360e-04 1 1  ON 53
uuF_24 -1.6375e-04 1 1  ON 54
uuF_25 4.4894e-05 1 1  ON 55
udF_0 -1.3123e-04 1 1  ON 56
udF_1 5.3844e-04 1 1  ON 57
udF_2 1.0934e-03 1 1  ON 58
udF_3 -3.8695e-04 1 1  ON 59
udF_4 -4.7598e-04 1 1  ON 60
udF_5 4.9226e-05 1 1  ON 61
udF_6 1.2752e-03 1 1  ON 62
udF_7 -1.1819e-04 1 1  ON 63
udF_8 1.6321e-03 1 1  ON 64
udF_9 -6.2858e-04 1 1  ON 65
udF_10 -3.1553e-04 1 1  ON 66
udF_11 -4.1803e-04 1 1  ON 67
udF_12 -7.8921e-04 1 1  ON 68
udF_13 5.7267e-04 1 1  ON 69
udF_14 6.1511e-04 1 1  ON 70
udF_15 1.7072e-05 1 1  ON 71
udF_16 7.9259e-04 1 1  ON 72
udF_17 1.4216e-03 1 1  ON 73
udF_18 -1.1657e-03 1 1  ON 74
udF_19 7.4342e-04 1 1  ON 75
udF_20 -6.2849e-04 1 1  ON 76
udF_21 2.1790e-04 1 1  ON 77
udF_22 -1.3388e-04 1 1  ON 78
udF_23 4.1567e-04 1 1  ON 79
udF_24 -1.6705e-04 1 1  ON 80
udF_25 4.5564e-05 1 1  ON 81
  </optVariables>
   Restore the number of walkers to 1, removing 0 walkers.
</opt>
</optimization-report>
  QMC Execution time = 5.6930e+00 secs
  Reusing QMCFixedSampleLinearOptimize
 Using QMCCostFunction::QMCCostFunction

=========================================================
  Start QMCFixedSampleLinearOptimize
  File Root F.log.s004 append = no 
=========================================================
  Skip QMCDriver::putQMCInfo 
  Resetting Properties of the walkers 1 x 13

=========================================================
  Start VMC
  File Root F.log.s004 append = no 
=========================================================
Using existing walkers 
  Resetting Properties of the walkers 1 x 13

<vmc function="put">
  qmc_counter=3  my_counter=3
  time step      = 1.5000e-01
  blocks         = 300
  steps          = 2
  substeps       = 5
  current        = 0
  target samples = 5.1200e+05
  walkers/mpi    = 1

  stepsbetweensamples = 1
<parameter name="blocks" condition="int">300</parameter>
<parameter name="blocks_between_recompute" condition="int">0</parameter>
<parameter name="check_properties" condition="int">100</parameter>
<parameter name="checkproperties" condition="int">100</parameter>
<parameter name="current" condition="int">0</parameter>
<parameter name="dmcwalkersperthread" condition="real">5.0000e+02</parameter>
<parameter name="maxcpusecs" condition="real">3.6000e+05</parameter>
<parameter name="record_configs" condition="int">0</parameter>
<parameter name="record_walkers" condition="int">1</parameter>
<parameter name="recordconfigs" condition="int">0</parameter>
<parameter name="recordwalkers" condition="int">1</parameter>
<parameter name="rewind" condition="int">0</parameter>
<parameter name="samples" condition="real">5.1200e+05</parameter>
<parameter name="samplesperthread" condition="real">5.0000e+02</parameter>
<parameter name="steps" condition="int">2</parameter>
<parameter name="stepsbetweensamples" condition="int">1</parameter>
<parameter name="store_configs" condition="int">0</parameter>
<parameter name="storeconfigs" condition="int">0</parameter>
<parameter name="sub_steps" condition="int">5</parameter>
<parameter name="substeps" condition="int">5</parameter>
<parameter name="tau" condition="au">1.5000e-01</parameter>
<parameter name="time_step" condition="au">1.5000e-01</parameter>
<parameter name="timestep" condition="au">1.5000e-01</parameter>
<parameter name="use_drift" condition="string">no</parameter>
<parameter name="usedrift" condition="string">no</parameter>
<parameter name="walkers" condition="int">1</parameter>
<parameter name="warmup_steps" condition="int">0</parameter>
<parameter name="warmupsteps" condition="int">0</parameter>
  DumpConfig==false Nothing (configurations, state) will be saved.
  Walker Samples are dumped every 1 steps.
</vmc>
  EstimatorManagerBase::add replace LocalEnergy estimator.
  EstimatorManagerBase::add replace LocalEnergy estimator.
<optimization-report>
<vmc stage="main" blocks="300">
  Cannot make clones again. Use existing 1 clones
  Initial partition of walkers 0 1 
  Using Particle by Particle moves
  Walker moves without drift
  Total Sample Size   =512000
  Walker distribution on root = 0 1 
  Using Locality Approximation
===== Memory Usage after the buffer registration =====
Available memory on node 0, free + buffers : 82317 MB
Memory footprint by rank 0 on node 0       : 98 MB
==================================================
====================================================
  SimpleFixedNodeBranch::finalize after a VMC block
    QMC counter        = 4
    time step          = 0.15
    reference energy   = -24.1858
    reference variance = 0.275441
====================================================
  Execution time = 3.2196e+00
</vmc>
<opt stage="setup">
  <log>
   Reading configurations from h5FileRoot F.log.s004
  QMCCostFunction is created with 1 threads.
  Using Nonlocal PP in Opt: NonLocalECP
   Number of samples loaded to each thread : 500 
  VMC Eavg = -2.4169e+01
  VMC Evar = 3.1130e-01
  Total weights = 5.1200e+05
  Execution time = 1.2605e+00
  </log>
</opt>
<opt stage="main" walkers="512000">
  <log>

*****************************************
Building overlap and Hamiltonian matrices
*****************************************

Among totally 82 optimized parameters, largest LM parameter change : 4.9751e-02 at parameter 20

******************************************************************************
Init Cost =  -2.2945e+01    New Cost =  -2.2945e+01  Delta Cost =  -1.6450e-04
******************************************************************************

The new set of parameters is valid. Updating the trial wave function!

*****************************************************************************
Applying the update for shift_i =   1.0000e-02     and shift_s =   3.9062e-03
*****************************************************************************
  Execution time = 5.6053e+00
  </log>
  <optVariables href="F.log.s004.opt.xml">
uu_0 1.6937e-01 1 1  ON 0
uu_1 6.1601e-02 1 1  ON 1
uu_2 1.3027e-03 1 1  ON 2
uu_3 -2.5712e-02 1 1  ON 3
uu_4 -4.6670e-02 1 1  ON 4
uu_5 -6.2699e-02 1 1  ON 5
uu_6 -6.9115e-02 1 1  ON 6
uu_7 -7.1769e-02 1 1  ON 7
uu_8 -5.7632e-02 1 1  ON 8
uu_9 -2.4906e-02 1 1  ON 9
ud_0 3.6837e-01 1 1  ON 10
ud_1 1.4718e-01 1 1  ON 11
ud_2 2.2978e-02 1 1  ON 12
ud_3 -4.0063e-02 1 1  ON 13
ud_4 -7.1003e-02 1 1  ON 14
ud_5 -8.4782e-02 1 1  ON 15
ud_6 -9.0207e-02 1 1  ON 16
ud_7 -9.6634e-02 1 1  ON 17
ud_8 -8.4729e-02 1 1  ON 18
ud_9 -5.4533e-02 1 1  ON 19
eF_0 -9.4851e-01 1 1  ON 20
eF_1 -8.6745e-01 1 1  ON 21
eF_2 -3.3047e-01 1 1  ON 22
eF_3 2.7941e-01 1 1  ON 23
eF_4 5.4220e-01 1 1  ON 24
eF_5 3.7029e-01 1 1  ON 25
eF_6 4.0727e-01 1 1  ON 26
eF_7 3.5534e-01 1 1  ON 27
eF_8 2.3810e-01 1 1  ON 28
eF_9 4.4440e-02 1 1  ON 29
uuF_0 5.0447e-04 1 1  ON 30
uuF_1 2.4671e-04 1 1  ON 31
uuF_2 -8.8729e-04 1 1  ON 32
uuF_3 -7.6392e-04 1 1  ON 33
uuF_4 -3.4471e-04 1 1  ON 34
uuF_5 1.0112e-04 1 1  ON 35
uuF_6 -5.7507e-04 1 1  ON 36
uuF_7 8.6284e-05 1 1  ON 37
uuF_8 -4.6754e-05 1 1  ON 38
uuF_9 9.6594e-05 1 1  ON 39
uuF_10 -9.2500e-04 1 1  ON 40
uuF_11 1.4080e-03 1 1  ON 41
uuF_12 -4.4794e-04 1 1  ON 42
uuF_13 1.0810e-03 1 1  ON 43
uuF_14 5.2020e-04 1 1  ON 44
uuF_15 -1.9628e-05 1 1  ON 45
uuF_16 -4.0993e-04 1 1  ON 46
uuF_17 3.0181e-03 1 1  ON 47
uuF_18 -3.0784e-03 1 1  ON 48
uuF_19 8.6584e-04 1 1  ON 49
uuF_20 -5.1916e-04 1 1  ON 50
uuF_21 3.9784e-04 1 1  ON 51
uuF_22 -1.5944e-04 1 1  ON 52
uuF_23 2.9394e-04 1 1  ON 53
uuF_24 -1.5324e-04 1 1  ON 54
uuF_25 4.3850e-05 1 1  ON 55
udF_0 -1.3841e-04 1 1  ON 56
udF_1 5.6784e-04 1 1  ON 57
udF_2 1.0988e-03 1 1  ON 58
udF_3 -4.0862e-04 1 1  ON 59
udF_4 -4.9609e-04 1 1  ON 60
udF_5 6.7369e-05 1 1  ON 61
udF_6 1.2903e-03 1 1  ON 62
udF_7 -1.7654e-04 1 1  ON 63
udF_8 1.6839e-03 1 1  ON 64
udF_9 -6.1206e-04 1 1  ON 65
udF_10 -3.4562e-04 1 1  ON 66
udF_11 -3.9272e-04 1 1  ON 67
udF_12 -8.5073e-04 1 1  ON 68
udF_13 6.0666e-04 1 1  ON 69
udF_14 6.5270e-04 1 1  ON 70
udF_15 2.1802e-05 1 1  ON 71
udF_16 7.5827e-04 1 1  ON 72
udF_17 1.4846e-03 1 1  ON 73
udF_18 -1.1654e-03 1 1  ON 74
udF_19 8.1344e-04 1 1  ON 75
udF_20 -6.2615e-04 1 1  ON 76
udF_21 1.8259e-04 1 1  ON 77
udF_22 -1.4091e-04 1 1  ON 78
udF_23 4.1662e-04 1 1  ON 79
udF_24 -1.5697e-04 1 1  ON 80
udF_25 4.5323e-05 1 1  ON 81
  </optVariables>
   Restore the number of walkers to 1, removing 0 walkers.
</opt>
</optimization-report>
  QMC Execution time = 6.0674e+00 secs
  Reusing QMCFixedSampleLinearOptimize
 Using QMCCostFunction::QMCCostFunction

=========================================================
  Start QMCFixedSampleLinearOptimize
  File Root F.log.s005 append = no 
=========================================================
  Skip QMCDriver::putQMCInfo 
  Resetting Properties of the walkers 1 x 13

=========================================================
  Start VMC
  File Root F.log.s005 append = no 
=========================================================
Using existing walkers 
  Resetting Properties of the walkers 1 x 13

<vmc function="put">
  qmc_counter=4  my_counter=4
  time step      = 1.5000e-01
  blocks         = 300
  steps          = 2
  substeps       = 5
  current        = 0
  target samples = 5.1200e+05
  walkers/mpi    = 1

  stepsbetweensamples = 1
<parameter name="blocks" condition="int">300</parameter>
<parameter name="blocks_between_recompute" condition="int">0</parameter>
<parameter name="check_properties" condition="int">100</parameter>
<parameter name="checkproperties" condition="int">100</parameter>
<parameter name="current" condition="int">0</parameter>
<parameter name="dmcwalkersperthread" condition="real">5.0000e+02</parameter>
<parameter name="maxcpusecs" condition="real">3.6000e+05</parameter>
<parameter name="record_configs" condition="int">0</parameter>
<parameter name="record_walkers" condition="int">1</parameter>
<parameter name="recordconfigs" condition="int">0</parameter>
<parameter name="recordwalkers" condition="int">1</parameter>
<parameter name="rewind" condition="int">0</parameter>
<parameter name="samples" condition="real">5.1200e+05</parameter>
<parameter name="samplesperthread" condition="real">5.0000e+02</parameter>
<parameter name="steps" condition="int">2</parameter>
<parameter name="stepsbetweensamples" condition="int">1</parameter>
<parameter name="store_configs" condition="int">0</parameter>
<parameter name="storeconfigs" condition="int">0</parameter>
<parameter name="sub_steps" condition="int">5</parameter>
<parameter name="substeps" condition="int">5</parameter>
<parameter name="tau" condition="au">1.5000e-01</parameter>
<parameter name="time_step" condition="au">1.5000e-01</parameter>
<parameter name="timestep" condition="au">1.5000e-01</parameter>
<parameter name="use_drift" condition="string">no</parameter>
<parameter name="usedrift" condition="string">no</parameter>
<parameter name="walkers" condition="int">1</parameter>
<parameter name="warmup_steps" condition="int">0</parameter>
<parameter name="warmupsteps" condition="int">0</parameter>
  DumpConfig==false Nothing (configurations, state) will be saved.
  Walker Samples are dumped every 1 steps.
</vmc>
  EstimatorManagerBase::add replace LocalEnergy estimator.
  EstimatorManagerBase::add replace LocalEnergy estimator.
<optimization-report>
<vmc stage="main" blocks="300">
  Cannot make clones again. Use existing 1 clones
  Initial partition of walkers 0 1 
  Using Particle by Particle moves
  Walker moves without drift
  Total Sample Size   =512000
  Walker distribution on root = 0 1 
  Using Locality Approximation
===== Memory Usage after the buffer registration =====
Available memory on node 0, free + buffers : 82314 MB
Memory footprint by rank 0 on node 0       : 100 MB
==================================================
====================================================
  SimpleFixedNodeBranch::finalize after a VMC block
    QMC counter        = 5
    time step          = 0.15
    reference energy   = -24.1547
    reference variance = 0.548336
====================================================
  Execution time = 3.1840e+00
</vmc>
<opt stage="setup">
  <log>
   Reading configurations from h5FileRoot F.log.s005
  QMCCostFunction is created with 1 threads.
  Using Nonlocal PP in Opt: NonLocalECP
   Number of samples loaded to each thread : 500 
  VMC Eavg = -2.4170e+01
  VMC Evar = 3.1018e-01
  Total weights = 5.1200e+05
  Execution time = 1.2197e+00
  </log>
</opt>
<opt stage="main" walkers="512000">
  <log>

*****************************************
Building overlap and Hamiltonian matrices
*****************************************

Among totally 82 optimized parameters, largest LM parameter change : 4.3234e-02 at parameter 20

******************************************************************************
Init Cost =  -2.2946e+01    New Cost =  -2.2946e+01  Delta Cost =  -2.4212e-04
******************************************************************************

The new set of parameters is valid. Updating the trial wave function!

*****************************************************************************
Applying the update for shift_i =   1.0000e-02     and shift_s =   3.9062e-03
*****************************************************************************
  Execution time = 5.4879e+00
  </log>
  <optVariables href="F.log.s005.opt.xml">
uu_0 1.6088e-01 1 1  ON 0
uu_1 5.5700e-02 1 1  ON 1
uu_2 -1.9200e-03 1 1  ON 2
uu_3 -2.6512e-02 1 1  ON 3
uu_4 -4.5264e-02 1 1  ON 4
uu_5 -6.0806e-02 1 1  ON 5
uu_6 -6.7372e-02 1 1  ON 6
uu_7 -7.1159e-02 1 1  ON 7
uu_8 -5.7540e-02 1 1  ON 8
uu_9 -2.4489e-02 1 1  ON 9
ud_0 3.6534e-01 1 1  ON 10
ud_1 1.4474e-01 1 1  ON 11
ud_2 2.1819e-02 1 1  ON 12
ud_3 -4.0035e-02 1 1  ON 13
ud_4 -6.9674e-02 1 1  ON 14
ud_5 -8.2849e-02 1 1  ON 15
ud_6 -8.8221e-02 1 1  ON 16
ud_7 -9.5377e-02 1 1  ON 17
ud_8 -8.4322e-02 1 1  ON 18
ud_9 -5.3187e-02 1 1  ON 19
eF_0 -9.9175e-01 1 1  ON 20
eF_1 -9.0536e-01 1 1  ON 21
eF_2 -3.5670e-01 1 1  ON 22
eF_3 2.7696e-01 1 1  ON 23
eF_4 5.5812e-01 1 1  ON 24
eF_5 3.8932e-01 1 1  ON 25
eF_6 4.2413e-01 1 1  ON 26
eF_7 3.7671e-01 1 1  ON 27
eF_8 2.6010e-01 1 1  ON 28
eF_9 5.8511e-02 1 1  ON 29
uuF_0 4.9044e-04 1 1  ON 30
uuF_1 2.2112e-04 1 1  ON 31
uuF_2 -9.1711e-04 1 1  ON 32
uuF_3 -7.1215e-04 1 1  ON 33
uuF_4 -3.0709e-04 1 1  ON 34
uuF_5 1.1761e-04 1 1  ON 35
uuF_6 -6.2263e-04 1 1  ON 36
uuF_7 1.2539e-05 1 1  ON 37
uuF_8 -1.5343e-04 1 1  ON 38
uuF_9 1.5702e-04 1 1  ON 39
uuF_10 -8.6639e-04 1 1  ON 40
uuF_11 1.4262e-03 1 1  ON 41
uuF_12 -4.1986e-04 1 1  ON 42
uuF_13 9.8546e-04 1 1  ON 43
uuF_14 4.7633e-04 1 1  ON 44
uuF_15 -1.5597e-05 1 1  ON 45
uuF_16 -4.2626e-04 1 1  ON 46
uuF_17 2.8029e-03 1 1  ON 47
uuF_18 -2.8991e-03 1 1  ON 48
uuF_19 8.5066e-04 1 1  ON 49
uuF_20 -4.6738e-04 1 1  ON 50
uuF_21 3.3800e-04 1 1  ON 51
uuF_22 -1.5049e-04 1 1  ON 52
uuF_23 2.9163e-04 1 1  ON 53
uuF_24 -1.3095e-04 1 1  ON 54
uuF_25 3.8202e-05 1 1  ON 55
udF_0 -1.5163e-04 1 1  ON 56
udF_1 5.2805e-04 1 1  ON 57
udF_2 1.0234e-03 1 1  ON 58
udF_3 -3.5139e-04 1 1  ON 59
udF_4 -4.5646e-04 1 1  ON 60
udF_5 8.1360e-05 1 1  ON 61
udF_6 1.2127e-03 1 1  ON 62
udF_7 -2.0532e-04 1 1  ON 63
udF_8 1.4953e-03 1 1  ON 64
udF_9 -5.3338e-04 1 1  ON 65
udF_10 -3.0384e-04 1 1  ON 66
udF_11 -2.6855e-04 1 1  ON 67
udF_12 -7.9642e-04 1 1  ON 68
udF_13 5.0477e-04 1 1  ON 69
udF_14 5.9301e-04 1 1  ON 70
udF_15 2.3946e-05 1 1  ON 71
udF_16 7.1129e-04 1 1  ON 72
udF_17 1.3644e-03 1 1  ON 73
udF_18 -1.2478e-03 1 1  ON 74
udF_19 8.2819e-04 1 1  ON 75
udF_20 -5.6888e-04 1 1  ON 76
udF_21 2.0279e-04 1 1  ON 77
udF_22 -1.5049e-04 1 1  ON 78
udF_23 4.0377e-04 1 1  ON 79
udF_24 -1.6081e-04 1 1  ON 80
udF_25 4.8111e-05 1 1  ON 81
  </optVariables>
   Restore the number of walkers to 1, removing 0 walkers.
</opt>
</optimization-report>
  QMC Execution time = 5.5014e+00 secs
  Reusing QMCFixedSampleLinearOptimize
 Using QMCCostFunction::QMCCostFunction

=========================================================
  Start QMCFixedSampleLinearOptimize
  File Root F.log.s006 append = no 
=========================================================
  Skip QMCDriver::putQMCInfo 
  Resetting Properties of the walkers 1 x 13

=========================================================
  Start VMC
  File Root F.log.s006 append = no 
=========================================================
Using existing walkers 
  Resetting Properties of the walkers 1 x 13

<vmc function="put">
  qmc_counter=5  my_counter=5
  time step      = 1.5000e-01
  blocks         = 300
  steps          = 2
  substeps       = 5
  current        = 0
  target samples = 5.1200e+05
  walkers/mpi    = 1

  stepsbetweensamples = 1
<parameter name="blocks" condition="int">300</parameter>
<parameter name="blocks_between_recompute" condition="int">0</parameter>
<parameter name="check_properties" condition="int">100</parameter>
<parameter name="checkproperties" condition="int">100</parameter>
<parameter name="current" condition="int">0</parameter>
<parameter name="dmcwalkersperthread" condition="real">5.0000e+02</parameter>
<parameter name="maxcpusecs" condition="real">3.6000e+05</parameter>
<parameter name="record_configs" condition="int">0</parameter>
<parameter name="record_walkers" condition="int">1</parameter>
<parameter name="recordconfigs" condition="int">0</parameter>
<parameter name="recordwalkers" condition="int">1</parameter>
<parameter name="rewind" condition="int">0</parameter>
<parameter name="samples" condition="real">5.1200e+05</parameter>
<parameter name="samplesperthread" condition="real">5.0000e+02</parameter>
<parameter name="steps" condition="int">2</parameter>
<parameter name="stepsbetweensamples" condition="int">1</parameter>
<parameter name="store_configs" condition="int">0</parameter>
<parameter name="storeconfigs" condition="int">0</parameter>
<parameter name="sub_steps" condition="int">5</parameter>
<parameter name="substeps" condition="int">5</parameter>
<parameter name="tau" condition="au">1.5000e-01</parameter>
<parameter name="time_step" condition="au">1.5000e-01</parameter>
<parameter name="timestep" condition="au">1.5000e-01</parameter>
<parameter name="use_drift" condition="string">no</parameter>
<parameter name="usedrift" condition="string">no</parameter>
<parameter name="walkers" condition="int">1</parameter>
<parameter name="warmup_steps" condition="int">0</parameter>
<parameter name="warmupsteps" condition="int">0</parameter>
  DumpConfig==false Nothing (configurations, state) will be saved.
  Walker Samples are dumped every 1 steps.
</vmc>
  EstimatorManagerBase::add replace LocalEnergy estimator.
  EstimatorManagerBase::add replace LocalEnergy estimator.
<optimization-report>
<vmc stage="main" blocks="300">
  Cannot make clones again. Use existing 1 clones
  Initial partition of walkers 0 1 
  Using Particle by Particle moves
  Walker moves without drift
  Total Sample Size   =512000
  Walker distribution on root = 0 1 
  Using Locality Approximation
===== Memory Usage after the buffer registration =====
Available memory on node 0, free + buffers : 82312 MB
Memory footprint by rank 0 on node 0       : 103 MB
==================================================
====================================================
  SimpleFixedNodeBranch::finalize after a VMC block
    QMC counter        = 6
    time step          = 0.15
    reference energy   = -24.1589
    reference variance = 0.501936
====================================================
  Execution time = 3.2101e+00
</vmc>
<opt stage="setup">
  <log>
   Reading configurations from h5FileRoot F.log.s006
  QMCCostFunction is created with 1 threads.
  Using Nonlocal PP in Opt: NonLocalECP
   Number of samples loaded to each thread : 500 
  VMC Eavg = -2.4171e+01
  VMC Evar = 3.1423e-01
  Total weights = 5.1200e+05
  Execution time = 1.2260e+00
  </log>
</opt>
<opt stage="main" walkers="512000">
  <log>

*****************************************
Building overlap and Hamiltonian matrices
*****************************************

Among totally 82 optimized parameters, largest LM parameter change : 3.5809e-02 at parameter 20

******************************************************************************
Init Cost =  -2.2947e+01    New Cost =  -2.2947e+01  Delta Cost =  -1.4786e-04
******************************************************************************

The new set of parameters is valid. Updating the trial wave function!

*****************************************************************************
Applying the update for shift_i =   1.0000e-02     and shift_s =   3.9062e-03
*****************************************************************************
  Execution time = 5.5108e+00
  </log>
  <optVariables href="F.log.s006.opt.xml">
uu_0 1.5609e-01 1 1  ON 0
uu_1 5.1565e-02 1 1  ON 1
uu_2 -3.6532e-03 1 1  ON 2
uu_3 -2.6191e-02 1 1  ON 3
uu_4 -4.4263e-02 1 1  ON 4
uu_5 -6.0052e-02 1 1  ON 5
uu_6 -6.6967e-02 1 1  ON 6
uu_7 -7.1700e-02 1 1  ON 7
uu_8 -6.0031e-02 1 1  ON 8
uu_9 -2.6527e-02 1 1  ON 9
ud_0 3.6446e-01 1 1  ON 10
ud_1 1.4414e-01 1 1  ON 11
ud_2 2.1894e-02 1 1  ON 12
ud_3 -3.8624e-02 1 1  ON 13
ud_4 -6.6923e-02 1 1  ON 14
ud_5 -8.0101e-02 1 1  ON 15
ud_6 -8.5615e-02 1 1  ON 16
ud_7 -9.4407e-02 1 1  ON 17
ud_8 -8.4433e-02 1 1  ON 18
ud_9 -5.4705e-02 1 1  ON 19
eF_0 -1.0276e+00 1 1  ON 20
eF_1 -9.3612e-01 1 1  ON 21
eF_2 -3.8242e-01 1 1  ON 22
eF_3 2.6543e-01 1 1  ON 23
eF_4 5.6787e-01 1 1  ON 24
eF_5 4.0761e-01 1 1  ON 25
eF_6 4.4496e-01 1 1  ON 26
eF_7 3.9997e-01 1 1  ON 27
eF_8 2.7897e-01 1 1  ON 28
eF_9 7.1523e-02 1 1  ON 29
uuF_0 5.1454e-04 1 1  ON 30
uuF_1 2.4761e-04 1 1  ON 31
uuF_2 -9.8376e-04 1 1  ON 32
uuF_3 -7.3905e-04 1 1  ON 33
uuF_4 -3.2054e-04 1 1  ON 34
uuF_5 1.2822e-04 1 1  ON 35
uuF_6 -5.6902e-04 1 1  ON 36
uuF_7 -1.3406e-04 1 1  ON 37
uuF_8 -2.2676e-04 1 1  ON 38
uuF_9 1.1393e-04 1 1  ON 39
uuF_10 -9.3287e-04 1 1  ON 40
uuF_11 1.6192e-03 1 1  ON 41
uuF_12 -4.3476e-04 1 1  ON 42
uuF_13 1.0655e-03 1 1  ON 43
uuF_14 4.6721e-04 1 1  ON 44
uuF_15 -1.1978e-05 1 1  ON 45
uuF_16 -3.1217e-04 1 1  ON 46
uuF_17 2.9205e-03 1 1  ON 47
uuF_18 -3.1141e-03 1 1  ON 48
uuF_19 9.0748e-04 1 1  ON 49
uuF_20 -5.5965e-04 1 1  ON 50
uuF_21 3.8151e-04 1 1  ON 51
uuF_22 -1.6522e-04 1 1  ON 52
uuF_23 3.4813e-04 1 1  ON 53
uuF_24 -1.5028e-04 1 1  ON 54
uuF_25 4.3346e-05 1 1  ON 55
udF_0 -1.3511e-04 1 1  ON 56
udF_1 5.5172e-04 1 1  ON 57
udF_2 9.9695e-04 1 1  ON 58
udF_3 -3.6929e-04 1 1  ON 59
udF_4 -4.6989e-04 1 1  ON 60
udF_5 8.9643e-05 1 1  ON 61
udF_6 1.2489e-03 1 1  ON 62
udF_7 -2.3654e-04 1 1  ON 63
udF_8 1.4633e-03 1 1  ON 64
udF_9 -5.7042e-04 1 1  ON 65
udF_10 -3.4015e-04 1 1  ON 66
udF_11 -2.2062e-04 1 1  ON 67
udF_12 -8.0334e-04 1 1  ON 68
udF_13 5.3648e-04 1 1  ON 69
udF_14 5.9338e-04 1 1  ON 70
udF_15 2.4508e-05 1 1  ON 71
udF_16 8.0208e-04 1 1  ON 72
udF_17 1.3553e-03 1 1  ON 73
udF_18 -1.2233e-03 1 1  ON 74
udF_19 8.3337e-04 1 1  ON 75
udF_20 -6.0575e-04 1 1  ON 76
udF_21 1.7679e-04 1 1  ON 77
udF_22 -1.4490e-04 1 1  ON 78
udF_23 4.2195e-04 1 1  ON 79
udF_24 -1.4747e-04 1 1  ON 80
udF_25 4.3244e-05 1 1  ON 81
  </optVariables>
   Restore the number of walkers to 1, removing 0 walkers.
</opt>
</optimization-report>
  QMC Execution time = 5.5237e+00 secs
  Reusing QMCFixedSampleLinearOptimize
 Using QMCCostFunction::QMCCostFunction

=========================================================
  Start QMCFixedSampleLinearOptimize
  File Root F.log.s007 append = no 
=========================================================
  Skip QMCDriver::putQMCInfo 
  Resetting Properties of the walkers 1 x 13

=========================================================
  Start VMC
  File Root F.log.s007 append = no 
=========================================================
Using existing walkers 
  Resetting Properties of the walkers 1 x 13

<vmc function="put">
  qmc_counter=6  my_counter=6
  time step      = 1.5000e-01
  blocks         = 300
  steps          = 2
  substeps       = 5
  current        = 0
  target samples = 5.1200e+05
  walkers/mpi    = 1

  stepsbetweensamples = 1
<parameter name="blocks" condition="int">300</parameter>
<parameter name="blocks_between_recompute" condition="int">0</parameter>
<parameter name="check_properties" condition="int">100</parameter>
<parameter name="checkproperties" condition="int">100</parameter>
<parameter name="current" condition="int">0</parameter>
<parameter name="dmcwalkersperthread" condition="real">5.0000e+02</parameter>
<parameter name="maxcpusecs" condition="real">3.6000e+05</parameter>
<parameter name="record_configs" condition="int">0</parameter>
<parameter name="record_walkers" condition="int">1</parameter>
<parameter name="recordconfigs" condition="int">0</parameter>
<parameter name="recordwalkers" condition="int">1</parameter>
<parameter name="rewind" condition="int">0</parameter>
<parameter name="samples" condition="real">5.1200e+05</parameter>
<parameter name="samplesperthread" condition="real">5.0000e+02</parameter>
<parameter name="steps" condition="int">2</parameter>
<parameter name="stepsbetweensamples" condition="int">1</parameter>
<parameter name="store_configs" condition="int">0</parameter>
<parameter name="storeconfigs" condition="int">0</parameter>
<parameter name="sub_steps" condition="int">5</parameter>
<parameter name="substeps" condition="int">5</parameter>
<parameter name="tau" condition="au">1.5000e-01</parameter>
<parameter name="time_step" condition="au">1.5000e-01</parameter>
<parameter name="timestep" condition="au">1.5000e-01</parameter>
<parameter name="use_drift" condition="string">no</parameter>
<parameter name="usedrift" condition="string">no</parameter>
<parameter name="walkers" condition="int">1</parameter>
<parameter name="warmup_steps" condition="int">0</parameter>
<parameter name="warmupsteps" condition="int">0</parameter>
  DumpConfig==false Nothing (configurations, state) will be saved.
  Walker Samples are dumped every 1 steps.
</vmc>
  EstimatorManagerBase::add replace LocalEnergy estimator.
  EstimatorManagerBase::add replace LocalEnergy estimator.
<optimization-report>
<vmc stage="main" blocks="300">
  Cannot make clones again. Use existing 1 clones
  Initial partition of walkers 0 1 
  Using Particle by Particle moves
  Walker moves without drift
  Total Sample Size   =512000
  Walker distribution on root = 0 1 
  Using Locality Approximation
===== Memory Usage after the buffer registration =====
Available memory on node 0, free + buffers : 82309 MB
Memory footprint by rank 0 on node 0       : 105 MB
==================================================
====================================================
  SimpleFixedNodeBranch::finalize after a VMC block
    QMC counter        = 7
    time step          = 0.15
    reference energy   = -24.1813
    reference variance = 0.256666
====================================================
  Execution time = 3.1935e+00
</vmc>
<opt stage="setup">
  <log>
   Reading configurations from h5FileRoot F.log.s007
  QMCCostFunction is created with 1 threads.
  Using Nonlocal PP in Opt: NonLocalECP
   Number of samples loaded to each thread : 500 
  VMC Eavg = -2.4171e+01
  VMC Evar = 3.1240e-01
  Total weights = 5.1200e+05
  Execution time = 1.2249e+00
  </log>
</opt>
<opt stage="main" walkers="512000">
  <log>

*****************************************
Building overlap and Hamiltonian matrices
*****************************************

Among totally 82 optimized parameters, largest LM parameter change : 3.0311e-02 at parameter 20

******************************************************************************
Init Cost =  -2.2947e+01    New Cost =  -2.2947e+01  Delta Cost =  -4.6460e-05
******************************************************************************

The new set of parameters is valid. Updating the trial wave function!

*****************************************************************************
Applying the update for shift_i =   1.0000e-02     and shift_s =   3.9062e-03
*****************************************************************************
  Execution time = 5.4881e+00
  </log>
  <optVariables href="F.log.s007.opt.xml">
uu_0 1.5283e-01 1 1  ON 0
uu_1 4.9426e-02 1 1  ON 1
uu_2 -4.4624e-03 1 1  ON 2
uu_3 -2.7028e-02 1 1  ON 3
uu_4 -4.4976e-02 1 1  ON 4
uu_5 -6.1329e-02 1 1  ON 5
uu_6 -6.9228e-02 1 1  ON 6
uu_7 -7.3557e-02 1 1  ON 7
uu_8 -6.2385e-02 1 1  ON 8
uu_9 -2.6845e-02 1 1  ON 9
ud_0 3.6170e-01 1 1  ON 10
ud_1 1.4205e-01 1 1  ON 11
ud_2 2.0615e-02 1 1  ON 12
ud_3 -3.9408e-02 1 1  ON 13
ud_4 -6.7609e-02 1 1  ON 14
ud_5 -8.0578e-02 1 1  ON 15
ud_6 -8.6077e-02 1 1  ON 16
ud_7 -9.4552e-02 1 1  ON 17
ud_8 -8.6247e-02 1 1  ON 18
ud_9 -5.4076e-02 1 1  ON 19
eF_0 -1.0579e+00 1 1  ON 20
eF_1 -9.6104e-01 1 1  ON 21
eF_2 -4.0728e-01 1 1  ON 22
eF_3 2.5104e-01 1 1  ON 23
eF_4 5.6700e-01 1 1  ON 24
eF_5 4.1987e-01 1 1  ON 25
eF_6 4.6273e-01 1 1  ON 26
eF_7 4.2066e-01 1 1  ON 27
eF_8 3.0429e-01 1 1  ON 28
eF_9 8.8613e-02 1 1  ON 29
uuF_0 4.8270e-04 1 1  ON 30
uuF_1 2.4909e-04 1 1  ON 31
uuF_2 -9.2141e-04 1 1  ON 32
uuF_3 -7.1448e-04 1 1  ON 33
uuF_4 -3.2326e-04 1 1  ON 34
uuF_5 1.3724e-04 1 1  ON 35
uuF_6 -5.5602e-04 1 1  ON 36
uuF_7 -4.2672e-05 1 1  ON 37
uuF_8 -1.5600e-04 1 1  ON 38
uuF_9 1.2605e-04 1 1  ON 39
uuF_10 -9.0559e-04 1 1  ON 40
uuF_11 1.4287e-03 1 1  ON 41
uuF_12 -4.3043e-04 1 1  ON 42
uuF_13 9.9621e-04 1 1  ON 43
uuF_14 4.5996e-04 1 1  ON 44
uuF_15 -1.0855e-05 1 1  ON 45
uuF_16 -2.7116e-04 1 1  ON 46
uuF_17 2.6812e-03 1 1  ON 47
uuF_18 -2.7101e-03 1 1  ON 48
uuF_19 8.2440e-04 1 1  ON 49
uuF_20 -5.2065e-04 1 1  ON 50
uuF_21 2.8381e-04 1 1  ON 51
uuF_22 -1.3615e-04 1 1  ON 52
uuF_23 3.3245e-04 1 1  ON 53
uuF_24 -1.1404e-04 1 1  ON 54
uuF_25 3.0866e-05 1 1  ON 55
udF_0 -1.4217e-04 1 1  ON 56
udF_1 5.7248e-04 1 1  ON 57
udF_2 1.0363e-03 1 1  ON 58
udF_3 -3.9545e-04 1 1  ON 59
udF_4 -4.9456e-04 1 1  ON 60
udF_5 9.4420e-05 1 1  ON 61
udF_6 1.2721e-03 1 1  ON 62
udF_7 -2.4145e-04 1 1  ON 63
udF_8 1.5885e-03 1 1  ON 64
udF_9 -5.7748e-04 1 1  ON 65
udF_10 -3.6714e-04 1 1  ON 66
udF_11 -2.5327e-04 1 1  ON 67
udF_12 -8.6885e-04 1 1  ON 68
udF_13 6.0723e-04 1 1  ON 69
udF_14 6.5292e-04 1 1  ON 70
udF_15 2.5637e-05 1 1  ON 71
udF_16 6.8334e-04 1 1  ON 72
udF_17 1.5144e-03 1 1  ON 73
udF_18 -1.2302e-03 1 1  ON 74
udF_19 8.7604e-04 1 1  ON 75
udF_20 -5.8505e-04 1 1  ON 76
udF_21 1.3843e-04 1 1  ON 77
udF_22 -1.4291e-04 1 1  ON 78
udF_23 4.0721e-04 1 1  ON 79
udF_24 -1.2656e-04 1 1  ON 80
udF_25 3.8412e-05 1 1  ON 81
  </optVariables>
   Restore the number of walkers to 1, removing 0 walkers.
</opt>
</optimization-report>
  QMC Execution time = 5.5010e+00 secs
  Reusing QMCFixedSampleLinearOptimize
 Using QMCCostFunction::QMCCostFunction

=========================================================
  Start QMCFixedSampleLinearOptimize
  File Root F.log.s008 append = no 
=========================================================
  Skip QMCDriver::putQMCInfo 
  Resetting Properties of the walkers 1 x 13

=========================================================
  Start VMC
  File Root F.log.s008 append = no 
=========================================================
Using existing walkers 
  Resetting Properties of the walkers 1 x 13

<vmc function="put">
  qmc_counter=7  my_counter=7
  time step      = 1.5000e-01
  blocks         = 300
  steps          = 2
  substeps       = 5
  current        = 0
  target samples = 5.1200e+05
  walkers/mpi    = 1

  stepsbetweensamples = 1
<parameter name="blocks" condition="int">300</parameter>
<parameter name="blocks_between_recompute" condition="int">0</parameter>
<parameter name="check_properties" condition="int">100</parameter>
<parameter name="checkproperties" condition="int">100</parameter>
<parameter name="current" condition="int">0</parameter>
<parameter name="dmcwalkersperthread" condition="real">5.0000e+02</parameter>
<parameter name="maxcpusecs" condition="real">3.6000e+05</parameter>
<parameter name="record_configs" condition="int">0</parameter>
<parameter name="record_walkers" condition="int">1</parameter>
<parameter name="recordconfigs" condition="int">0</parameter>
<parameter name="recordwalkers" condition="int">1</parameter>
<parameter name="rewind" condition="int">0</parameter>
<parameter name="samples" condition="real">5.1200e+05</parameter>
<parameter name="samplesperthread" condition="real">5.0000e+02</parameter>
<parameter name="steps" condition="int">2</parameter>
<parameter name="stepsbetweensamples" condition="int">1</parameter>
<parameter name="store_configs" condition="int">0</parameter>
<parameter name="storeconfigs" condition="int">0</parameter>
<parameter name="sub_steps" condition="int">5</parameter>
<parameter name="substeps" condition="int">5</parameter>
<parameter name="tau" condition="au">1.5000e-01</parameter>
<parameter name="time_step" condition="au">1.5000e-01</parameter>
<parameter name="timestep" condition="au">1.5000e-01</parameter>
<parameter name="use_drift" condition="string">no</parameter>
<parameter name="usedrift" condition="string">no</parameter>
<parameter name="walkers" condition="int">1</parameter>
<parameter name="warmup_steps" condition="int">0</parameter>
<parameter name="warmupsteps" condition="int">0</parameter>
  DumpConfig==false Nothing (configurations, state) will be saved.
  Walker Samples are dumped every 1 steps.
</vmc>
  EstimatorManagerBase::add replace LocalEnergy estimator.
  EstimatorManagerBase::add replace LocalEnergy estimator.
<optimization-report>
<vmc stage="main" blocks="300">
  Cannot make clones again. Use existing 1 clones
  Initial partition of walkers 0 1 
  Using Particle by Particle moves
  Walker moves without drift
  Total Sample Size   =512000
  Walker distribution on root = 0 1 
  Using Locality Approximation
===== Memory Usage after the buffer registration =====
Available memory on node 0, free + buffers : 82306 MB
Memory footprint by rank 0 on node 0       : 107 MB
==================================================
====================================================
  SimpleFixedNodeBranch::finalize after a VMC block
    QMC counter        = 8
    time step          = 0.15
    reference energy   = -24.1688
    reference variance = 0.337811
====================================================
  Execution time = 3.1878e+00
</vmc>
<opt stage="setup">
  <log>
   Reading configurations from h5FileRoot F.log.s008
  QMCCostFunction is created with 1 threads.
  Using Nonlocal PP in Opt: NonLocalECP
   Number of samples loaded to each thread : 500 
  VMC Eavg = -2.4170e+01
  VMC Evar = 3.2355e-01
  Total weights = 5.1200e+05
  Execution time = 1.2103e+00
  </log>
</opt>
<opt stage="main" walkers="512000">
  <log>

*****************************************
Building overlap and Hamiltonian matrices
*****************************************

Among totally 82 optimized parameters, largest LM parameter change : 2.8697e-02 at parameter 20

******************************************************************************
Init Cost =  -2.2946e+01    New Cost =  -2.2946e+01  Delta Cost =  -2.0955e-04
******************************************************************************

The new set of parameters is valid. Updating the trial wave function!

*****************************************************************************
Applying the update for shift_i =   1.0000e-02     and shift_s =   3.9062e-03
*****************************************************************************
  Execution time = 5.4221e+00
  </log>
  <optVariables href="F.log.s008.opt.xml">
uu_0 1.4898e-01 1 1  ON 0
uu_1 4.6704e-02 1 1  ON 1
uu_2 -5.8562e-03 1 1  ON 2
uu_3 -2.7322e-02 1 1  ON 3
uu_4 -4.4847e-02 1 1  ON 4
uu_5 -6.1257e-02 1 1  ON 5
uu_6 -6.9462e-02 1 1  ON 6
uu_7 -7.5212e-02 1 1  ON 7
uu_8 -6.3089e-02 1 1  ON 8
uu_9 -3.1021e-02 1 1  ON 9
ud_0 3.6308e-01 1 1  ON 10
ud_1 1.4409e-01 1 1  ON 11
ud_2 2.2166e-02 1 1  ON 12
ud_3 -3.8290e-02 1 1  ON 13
ud_4 -6.6961e-02 1 1  ON 14
ud_5 -8.0946e-02 1 1  ON 15
ud_6 -8.7597e-02 1 1  ON 16
ud_7 -9.6160e-02 1 1  ON 17
ud_8 -8.6978e-02 1 1  ON 18
ud_9 -5.6884e-02 1 1  ON 19
eF_0 -1.0866e+00 1 1  ON 20
eF_1 -9.8753e-01 1 1  ON 21
eF_2 -4.2943e-01 1 1  ON 22
eF_3 2.3670e-01 1 1  ON 23
eF_4 5.6920e-01 1 1  ON 24
eF_5 4.4096e-01 1 1  ON 25
eF_6 4.7792e-01 1 1  ON 26
eF_7 4.3903e-01 1 1  ON 27
eF_8 3.2492e-01 1 1  ON 28
eF_9 1.0201e-01 1 1  ON 29
uuF_0 4.8758e-04 1 1  ON 30
uuF_1 2.6473e-04 1 1  ON 31
uuF_2 -9.2100e-04 1 1  ON 32
uuF_3 -7.2998e-04 1 1  ON 33
uuF_4 -3.3296e-04 1 1  ON 34
uuF_5 1.4507e-04 1 1  ON 35
uuF_6 -5.4633e-04 1 1  ON 36
uuF_7 -1.1763e-04 1 1  ON 37
uuF_8 -7.3973e-05 1 1  ON 38
uuF_9 1.2843e-04 1 1  ON 39
uuF_10 -9.2274e-04 1 1  ON 40
uuF_11 1.4810e-03 1 1  ON 41
uuF_12 -4.9752e-04 1 1  ON 42
uuF_13 1.0843e-03 1 1  ON 43
uuF_14 5.2755e-04 1 1  ON 44
uuF_15 -1.1076e-05 1 1  ON 45
uuF_16 -3.6907e-04 1 1  ON 46
uuF_17 2.9379e-03 1 1  ON 47
uuF_18 -2.9190e-03 1 1  ON 48
uuF_19 9.1129e-04 1 1  ON 49
uuF_20 -5.4740e-04 1 1  ON 50
uuF_21 3.0600e-04 1 1  ON 51
uuF_22 -1.5121e-04 1 1  ON 52
uuF_23 3.5576e-04 1 1  ON 53
uuF_24 -1.2593e-04 1 1  ON 54
uuF_25 3.5833e-05 1 1  ON 55
udF_0 -1.4630e-04 1 1  ON 56
udF_1 5.5885e-04 1 1  ON 57
udF_2 1.0399e-03 1 1  ON 58
udF_3 -3.5850e-04 1 1  ON 59
udF_4 -4.6585e-04 1 1  ON 60
udF_5 9.9151e-05 1 1  ON 61
udF_6 1.2755e-03 1 1  ON 62
udF_7 -2.6085e-04 1 1  ON 63
udF_8 1.5209e-03 1 1  ON 64
udF_9 -5.8136e-04 1 1  ON 65
udF_10 -3.1934e-04 1 1  ON 66
udF_11 -2.9006e-04 1 1  ON 67
udF_12 -8.1886e-04 1 1  ON 68
udF_13 5.4553e-04 1 1  ON 69
udF_14 6.0259e-04 1 1  ON 70
udF_15 2.6044e-05 1 1  ON 71
udF_16 8.2345e-04 1 1  ON 72
udF_17 1.3087e-03 1 1  ON 73
udF_18 -1.1000e-03 1 1  ON 74
udF_19 8.2860e-04 1 1  ON 75
udF_20 -6.2726e-04 1 1  ON 76
udF_21 1.4550e-04 1 1  ON 77
udF_22 -1.4015e-04 1 1  ON 78
udF_23 4.5051e-04 1 1  ON 79
udF_24 -1.4254e-04 1 1  ON 80
udF_25 4.1562e-05 1 1  ON 81
  </optVariables>
   Restore the number of walkers to 1, removing 0 walkers.
</opt>
</optimization-report>
  QMC Execution time = 5.4360e+00 secs
  Reusing QMCFixedSampleLinearOptimize
 Using QMCCostFunction::QMCCostFunction

=========================================================
  Start QMCFixedSampleLinearOptimize
  File Root F.log.s009 append = no 
=========================================================
  Skip QMCDriver::putQMCInfo 
  Resetting Properties of the walkers 1 x 13

=========================================================
  Start VMC
  File Root F.log.s009 append = no 
=========================================================
Using existing walkers 
  Resetting Properties of the walkers 1 x 13

<vmc function="put">
  qmc_counter=8  my_counter=8
  time step      = 1.5000e-01
  blocks         = 300
  steps          = 2
  substeps       = 5
  current        = 0
  target samples = 5.1200e+05
  walkers/mpi    = 1

  stepsbetweensamples = 1
<parameter name="blocks" condition="int">300</parameter>
<parameter name="blocks_between_recompute" condition="int">0</parameter>
<parameter name="check_properties" condition="int">100</parameter>
<parameter name="checkproperties" condition="int">100</parameter>
<parameter name="current" condition="int">0</parameter>
<parameter name="dmcwalkersperthread" condition="real">5.0000e+02</parameter>
<parameter name="maxcpusecs" condition="real">3.6000e+05</parameter>
<parameter name="record_configs" condition="int">0</parameter>
<parameter name="record_walkers" condition="int">1</parameter>
<parameter name="recordconfigs" condition="int">0</parameter>
<parameter name="recordwalkers" condition="int">1</parameter>
<parameter name="rewind" condition="int">0</parameter>
<parameter name="samples" condition="real">5.1200e+05</parameter>
<parameter name="samplesperthread" condition="real">5.0000e+02</parameter>
<parameter name="steps" condition="int">2</parameter>
<parameter name="stepsbetweensamples" condition="int">1</parameter>
<parameter name="store_configs" condition="int">0</parameter>
<parameter name="storeconfigs" condition="int">0</parameter>
<parameter name="sub_steps" condition="int">5</parameter>
<parameter name="substeps" condition="int">5</parameter>
<parameter name="tau" condition="au">1.5000e-01</parameter>
<parameter name="time_step" condition="au">1.5000e-01</parameter>
<parameter name="timestep" condition="au">1.5000e-01</parameter>
<parameter name="use_drift" condition="string">no</parameter>
<parameter name="usedrift" condition="string">no</parameter>
<parameter name="walkers" condition="int">1</parameter>
<parameter name="warmup_steps" condition="int">0</parameter>
<parameter name="warmupsteps" condition="int">0</parameter>
  DumpConfig==false Nothing (configurations, state) will be saved.
  Walker Samples are dumped every 1 steps.
</vmc>
  EstimatorManagerBase::add replace LocalEnergy estimator.
  EstimatorManagerBase::add replace LocalEnergy estimator.
<optimization-report>
<vmc stage="main" blocks="300">
  Cannot make clones again. Use existing 1 clones
  Initial partition of walkers 0 1 
  Using Particle by Particle moves
  Walker moves without drift
  Total Sample Size   =512000
  Walker distribution on root = 0 1 
  Using Locality Approximation
===== Memory Usage after the buffer registration =====
Available memory on node 0, free + buffers : 82303 MB
Memory footprint by rank 0 on node 0       : 109 MB
==================================================
====================================================
  SimpleFixedNodeBranch::finalize after a VMC block
    QMC counter        = 9
    time step          = 0.15
    reference energy   = -24.1583
    reference variance = 0.324071
====================================================
  Execution time = 3.4126e+00
</vmc>
<opt stage="setup">
  <log>
   Reading configurations from h5FileRoot F.log.s009
  QMCCostFunction is created with 1 threads.
  Using Nonlocal PP in Opt: NonLocalECP
   Number of samples loaded to each thread : 500 
  VMC Eavg = -2.4170e+01
  VMC Evar = 3.0860e-01
  Total weights = 5.1200e+05
  Execution time = 1.1544e+00
  </log>
</opt>
<opt stage="main" walkers="512000">
  <log>

*****************************************
Building overlap and Hamiltonian matrices
*****************************************

Among totally 82 optimized parameters, largest LM parameter change : 2.5686e-02 at parameter 20

******************************************************************************
Init Cost =  -2.2946e+01    New Cost =  -2.2947e+01  Delta Cost =  -1.4351e-04
******************************************************************************

The new set of parameters is valid. Updating the trial wave function!

*****************************************************************************
Applying the update for shift_i =   1.0000e-02     and shift_s =   3.9062e-03
*****************************************************************************
  Execution time = 5.5519e+00
  </log>
  <optVariables href="F.log.s009.opt.xml">
uu_0 1.4639e-01 1 1  ON 0
uu_1 4.5302e-02 1 1  ON 1
uu_2 -7.0978e-03 1 1  ON 2
uu_3 -2.7857e-02 1 1  ON 3
uu_4 -4.4788e-02 1 1  ON 4
uu_5 -6.1806e-02 1 1  ON 5
uu_6 -7.0356e-02 1 1  ON 6
uu_7 -7.6921e-02 1 1  ON 7
uu_8 -6.6769e-02 1 1  ON 8
uu_9 -3.1384e-02 1 1  ON 9
ud_0 3.6522e-01 1 1  ON 10
ud_1 1.4587e-01 1 1  ON 11
ud_2 2.3803e-02 1 1  ON 12
ud_3 -3.7500e-02 1 1  ON 13
ud_4 -6.6401e-02 1 1  ON 14
ud_5 -8.0428e-02 1 1  ON 15
ud_6 -8.6700e-02 1 1  ON 16
ud_7 -9.5033e-02 1 1  ON 17
ud_8 -8.8153e-02 1 1  ON 18
ud_9 -5.8558e-02 1 1  ON 19
eF_0 -1.1122e+00 1 1  ON 20
eF_1 -1.0089e+00 1 1  ON 21
eF_2 -4.5016e-01 1 1  ON 22
eF_3 2.2000e-01 1 1  ON 23
eF_4 5.6770e-01 1 1  ON 24
eF_5 4.5574e-01 1 1  ON 25
eF_6 4.9187e-01 1 1  ON 26
eF_7 4.6095e-01 1 1  ON 27
eF_8 3.4510e-01 1 1  ON 28
eF_9 1.1603e-01 1 1  ON 29
uuF_0 4.5457e-04 1 1  ON 30
uuF_1 2.3678e-04 1 1  ON 31
uuF_2 -8.6127e-04 1 1  ON 32
uuF_3 -6.8330e-04 1 1  ON 33
uuF_4 -3.3874e-04 1 1  ON 34
uuF_5 1.5216e-04 1 1  ON 35
uuF_6 -5.6973e-04 1 1  ON 36
uuF_7 7.0505e-05 1 1  ON 37
uuF_8 -4.6091e-05 1 1  ON 38
uuF_9 1.5124e-04 1 1  ON 39
uuF_10 -8.7754e-04 1 1  ON 40
uuF_11 1.2572e-03 1 1  ON 41
uuF_12 -4.8165e-04 1 1  ON 42
uuF_13 9.3470e-04 1 1  ON 43
uuF_14 5.1249e-04 1 1  ON 44
uuF_15 -1.0348e-05 1 1  ON 45
uuF_16 -2.8902e-04 1 1  ON 46
uuF_17 2.5855e-03 1 1  ON 47
uuF_18 -2.5441e-03 1 1  ON 48
uuF_19 8.5822e-04 1 1  ON 49
uuF_20 -4.5084e-04 1 1  ON 50
uuF_21 2.2821e-04 1 1  ON 51
uuF_22 -1.3635e-04 1 1  ON 52
uuF_23 2.9687e-04 1 1  ON 53
uuF_24 -9.2229e-05 1 1  ON 54
uuF_25 2.8529e-05 1 1  ON 55
udF_0 -1.7239e-04 1 1  ON 56
udF_1 5.2199e-04 1 1  ON 57
udF_2 1.0596e-03 1 1  ON 58
udF_3 -3.1212e-04 1 1  ON 59
udF_4 -4.4664e-04 1 1  ON 60
udF_5 1.0675e-04 1 1  ON 61
udF_6 1.1974e-03 1 1  ON 62
udF_7 -1.7749e-04 1 1  ON 63
udF_8 1.5441e-03 1 1  ON 64
udF_9 -4.9707e-04 1 1  ON 65
udF_10 -2.6124e-04 1 1  ON 66
udF_11 -4.1042e-04 1 1  ON 67
udF_12 -8.1655e-04 1 1  ON 68
udF_13 4.3838e-04 1 1  ON 69
udF_14 6.0677e-04 1 1  ON 70
udF_15 2.6144e-05 1 1  ON 71
udF_16 6.7136e-04 1 1  ON 72
udF_17 1.1673e-03 1 1  ON 73
udF_18 -9.2489e-04 1 1  ON 74
udF_19 8.0711e-04 1 1  ON 75
udF_20 -4.8161e-04 1 1  ON 76
udF_21 9.8721e-05 1 1  ON 77
udF_22 -1.3239e-04 1 1  ON 78
udF_23 3.6677e-04 1 1  ON 79
udF_24 -1.1618e-04 1 1  ON 80
udF_25 3.6916e-05 1 1  ON 81
  </optVariables>
   Restore the number of walkers to 1, removing 0 walkers.
</opt>
</optimization-report>
  QMC Execution time = 5.5652e+00 secs
  Reusing QMCFixedSampleLinearOptimize
 Using QMCCostFunction::QMCCostFunction

=========================================================
  Start QMCFixedSampleLinearOptimize
  File Root F.log.s010 append = no 
=========================================================
  Skip QMCDriver::putQMCInfo 
  Resetting Properties of the walkers 1 x 13
[...]
    QMC counter        = 20
    time step          = 0.15
    reference energy   = -24.161
    reference variance = 0.2115
====================================================
  Execution time = 2.7996e+00
</vmc>
<opt stage="setup">
  <log>
   Reading configurations from h5FileRoot F.log.s020
  QMCCostFunction is created with 1 threads.
  Using Nonlocal PP in Opt: NonLocalECP
   Number of samples loaded to each thread : 500 
  VMC Eavg = -2.4172e+01
  VMC Evar = 3.0003e-01
  Total weights = 5.1200e+05
  Execution time = 8.5994e-01
  </log>
</opt>
<opt stage="main" walkers="512000">
  <log>

*****************************************
Building overlap and Hamiltonian matrices
*****************************************

Among totally 82 optimized parameters, largest LM parameter change : 1.6260e-02 at parameter 20

******************************************************************************
Init Cost =  -2.2949e+01    New Cost =  -2.2949e+01  Delta Cost =  -9.0865e-05
******************************************************************************

The new set of parameters is valid. Updating the trial wave function!

*****************************************************************************
Applying the update for shift_i =   1.0000e-02     and shift_s =   3.9062e-03
*****************************************************************************
  Execution time = 4.3961e+00
  </log>
  <optVariables href="F.log.s020.opt.xml">
uu_0 1.5165e-01 1 1  ON 0
uu_1 5.1064e-02 1 1  ON 1
uu_2 -2.6936e-03 1 1  ON 2
uu_3 -2.8187e-02 1 1  ON 3
uu_4 -4.9364e-02 1 1  ON 4
uu_5 -6.9272e-02 1 1  ON 5
uu_6 -8.1052e-02 1 1  ON 6
uu_7 -9.1103e-02 1 1  ON 7
uu_8 -8.6563e-02 1 1  ON 8
uu_9 -6.0937e-02 1 1  ON 9
ud_0 3.8266e-01 1 1  ON 10
ud_1 1.6348e-01 1 1  ON 11
ud_2 3.8645e-02 1 1  ON 12
ud_3 -2.6794e-02 1 1  ON 13
ud_4 -5.9248e-02 1 1  ON 14
ud_5 -7.5605e-02 1 1  ON 15
ud_6 -8.5166e-02 1 1  ON 16
ud_7 -9.8785e-02 1 1  ON 17
ud_8 -9.6134e-02 1 1  ON 18
ud_9 -6.9465e-02 1 1  ON 19
eF_0 -1.3146e+00 1 1  ON 20
eF_1 -1.1875e+00 1 1  ON 21
eF_2 -6.2654e-01 1 1  ON 22
eF_3 7.9895e-02 1 1  ON 23
eF_4 5.3383e-01 1 1  ON 24
eF_5 5.7006e-01 1 1  ON 25
eF_6 6.0866e-01 1 1  ON 26
eF_7 6.0921e-01 1 1  ON 27
eF_8 5.0879e-01 1 1  ON 28
eF_9 2.6476e-01 1 1  ON 29
uuF_0 3.4972e-04 1 1  ON 30
uuF_1 1.7668e-04 1 1  ON 31
uuF_2 -7.1237e-04 1 1  ON 32
uuF_3 -5.3322e-04 1 1  ON 33
uuF_4 -2.6554e-04 1 1  ON 34
uuF_5 1.8214e-04 1 1  ON 35
uuF_6 -5.8640e-04 1 1  ON 36
uuF_7 2.2272e-05 1 1  ON 37
uuF_8 -7.5531e-06 1 1  ON 38
uuF_9 2.7992e-04 1 1  ON 39
uuF_10 -6.8412e-04 1 1  ON 40
uuF_11 9.8706e-04 1 1  ON 41
uuF_12 -4.4177e-04 1 1  ON 42
uuF_13 6.9384e-04 1 1  ON 43
uuF_14 4.4360e-04 1 1  ON 44
uuF_15 -1.9052e-06 1 1  ON 45
uuF_16 -4.2353e-04 1 1  ON 46
uuF_17 2.0308e-03 1 1  ON 47
uuF_18 -1.9295e-03 1 1  ON 48
uuF_19 7.4081e-04 1 1  ON 49
uuF_20 -2.5894e-04 1 1  ON 50
uuF_21 1.1468e-04 1 1  ON 51
uuF_22 -1.0909e-04 1 1  ON 52
uuF_23 2.3083e-04 1 1  ON 53
uuF_24 -4.8307e-05 1 1  ON 54
uuF_25 1.8383e-05 1 1  ON 55
udF_0 -2.2800e-04 1 1  ON 56
udF_1 5.3438e-04 1 1  ON 57
udF_2 1.2090e-03 1 1  ON 58
udF_3 -2.5237e-04 1 1  ON 59
udF_4 -4.4004e-04 1 1  ON 60
udF_5 1.3284e-04 1 1  ON 61
udF_6 1.3261e-03 1 1  ON 62
udF_7 -2.7355e-04 1 1  ON 63
udF_8 1.6696e-03 1 1  ON 64
udF_9 -5.3179e-04 1 1  ON 65
udF_10 -1.9983e-04 1 1  ON 66
udF_11 -5.8292e-04 1 1  ON 67
udF_12 -8.4677e-04 1 1  ON 68
udF_13 3.9420e-04 1 1  ON 69
udF_14 5.9061e-04 1 1  ON 70
udF_15 3.6457e-05 1 1  ON 71
udF_16 8.1030e-04 1 1  ON 72
udF_17 8.8289e-04 1 1  ON 73
udF_18 -5.3028e-04 1 1  ON 74
udF_19 7.6970e-04 1 1  ON 75
udF_20 -4.9564e-04 1 1  ON 76
udF_21 2.5996e-05 1 1  ON 77
udF_22 -1.2174e-04 1 1  ON 78
udF_23 3.9913e-04 1 1  ON 79
udF_24 -9.7570e-05 1 1  ON 80
udF_25 3.3489e-05 1 1  ON 81
  </optVariables>
   Restore the number of walkers to 1, removing 0 walkers.
</opt>
</optimization-report>
  QMC Execution time = 4.4093e+00 secs

=========================================================
  Start VMC
  File Root F.log.s021 append = no 
=========================================================
  Using the current 1 walkers.
  Total number of walkers: 1.0240e+03
  Total weight: 1.0240e+03
  Resetting Properties of the walkers 1 x 13

<vmc function="put">
  qmc_counter=0  my_counter=0
  time step      = 1.5000e-01
  blocks         = 200
  steps          = 1
  substeps       = 30
  current        = 0
  target samples = 4.0960e+03
  walkers/mpi    = 1

  stepsbetweensamples = 50
<parameter name="blocks" condition="int">200</parameter>
<parameter name="blocks_between_recompute" condition="int">0</parameter>
<parameter name="check_properties" condition="int">100</parameter>
<parameter name="checkproperties" condition="int">100</parameter>
<parameter name="current" condition="int">0</parameter>
<parameter name="dmcwalkersperthread" condition="real">4.0000e+00</parameter>
<parameter name="maxcpusecs" condition="real">3.6000e+05</parameter>
<parameter name="record_configs" condition="int">0</parameter>
<parameter name="record_walkers" condition="int">50</parameter>
<parameter name="recordconfigs" condition="int">0</parameter>
<parameter name="recordwalkers" condition="int">50</parameter>
<parameter name="rewind" condition="int">0</parameter>
<parameter name="samples" condition="real">4.0960e+03</parameter>
<parameter name="samplesperthread" condition="real">4.0000e+00</parameter>
<parameter name="steps" condition="int">1</parameter>
<parameter name="stepsbetweensamples" condition="int">50</parameter>
<parameter name="store_configs" condition="int">0</parameter>
<parameter name="storeconfigs" condition="int">0</parameter>
<parameter name="sub_steps" condition="int">30</parameter>
<parameter name="substeps" condition="int">30</parameter>
<parameter name="tau" condition="au">1.5000e-01</parameter>
<parameter name="time_step" condition="au">1.5000e-01</parameter>
<parameter name="timestep" condition="au">1.5000e-01</parameter>
<parameter name="use_drift" condition="string">no</parameter>
<parameter name="usedrift" condition="string">no</parameter>
<parameter name="walkers" condition="int">1</parameter>
<parameter name="warmup_steps" condition="int">100</parameter>
<parameter name="warmupsteps" condition="int">100</parameter>
  DumpConfig==false Nothing (configurations, state) will be saved.
  Walker Samples are dumped every 50 steps.
</vmc>
  EstimatorManagerBase::add replace LocalEnergy estimator.
  Cannot make clones again. Use existing 1 clones
  Initial partition of walkers 0 1 

  Using Particle by Particle moves
  Walker moves without drift
  Total Sample Size   =4096
  Walker distribution on root = 0 1 
  Using Locality Approximation
===== Memory Usage after the buffer registration =====
Available memory on node 0, free + buffers : 82261 MB
Memory footprint by rank 0 on node 0       : 136 MB
==================================================
  Anonymous Buffer size per walker : 2688 Bytes.
MEMORY increase 0 MB VMC::resetRun
====================================================
  SimpleFixedNodeBranch::finalize after a VMC block
    QMC counter        = 21
    time step          = 0.15
    reference energy   = -24.2082
    reference variance = 0.312783
====================================================
  QMC Execution time = 3.1896e+00 secs

=========================================================
  Start DMC
  File Root F.log.s022 append = no 
=========================================================
Using existing walkers 
  Resetting Properties of the walkers 1 x 13
  EstimatorManagerBase::add replace LocalEnergy estimator.
  Cannot make clones again. Use existing 1 clones
  Total number of walkers: 4.0960e+03
  Total weight: 4.0960e+03
  Creating WalkerController: target  number of walkers = 4096
  Using WalkerControlMPI for dynamic population control.
  START ALL OVER 
  WalkerControlBase parameters 
    maxCopy = 2
    Max Walkers per MPI rank 9
    Min Walkers per MPI rank 1
    Using non-blocking send/recv
  QMC counter      = 22
  time step        = 2.0000e-02
  effective time step = 2.0000e-02
  trial energy     = -2.4208e+01
  reference energy = -2.4208e+01
  Feedback = 1.0000e+00
  reference variance = 3.1278e-01
  target walkers = 4096
  branching cutoff scheme classic
  branch cutoff = 5.0000e+01 7.5000e+01
  Max and minimum walkers per node= 9 1
  QMC Status (BranchMode) = 0000001101
  Initial partition of walkers on a node: 0 4 
  Updates by particle-by-particle moves
  DMC moves are rejected when a node crossing is detected
  Using Non-local T-moves v0, M. Casula, PRB 74, 161102(R) (2006)
===== Memory Usage after the buffer registration =====
Available memory on node 0, free + buffers : 82260 MB
Memory footprint by rank 0 on node 0       : 136 MB
==================================================
SimpleFixedNodeBranch::checkParameters 
  Average Energy of a population  = -24.1855
  Energy Variance = 8.2442

  Fluctuating population
  Persistent walkers are killed after 1 MC sweeps
  BranchInterval = 1
  Steps per block = 50
  Number of blocks = 70

  DMC Engine Initialization = 3.4637e-02 secs

 Warmup is completed after 100

  TauEff     = 1.9076e-02
 TauEff/Tau = 9.5382e-01
  Etrial     = -2.4203e+01
 Running average of energy = -2.4184e+01
                  Variance = 4.2296e-01
branch cutoff = 1.0000e+01 1.5000e+01
====================================================
  SimpleFixedNodeBranch::finalize after a DMC block
    QMC counter                   = 22
    time step                     = 0.02
    effective time step           = 0.0190786
    trial energy                  = -24.2016
    reference energy              = -24.1853
    reference variance            = 0.422956
    target walkers                = 4096
    branch cutoff                 = 10 15
    Max and minimum walkers per node= 9 1
    Feedback                      = 1
    QMC Status (BranchMode)       = 0000001111
====================================================
  QMC Execution time = 3.9279e+01 secs
  Reusing DMC
BRANCH resetRun
 SimpleFixedNodeBranch::resetRun detected changes in <parameter>'s 
 BranchMode : 0000001111 0000001111
  WalkerControlBase parameters 
    maxCopy = 2
    Max Walkers per MPI rank 9
    Min Walkers per MPI rank 1
    Using non-blocking send/recv
 iParam (old):                  0                 1                22              4096                 9                 1                 1                 0
 iParam (new):                100                 1                22              4096                 9                 1                 1                 0
 vParam (old):   2.0000000000e-02  1.9078553383e-02 -2.4201558354e+01 -2.4185333273e+01 -2.4169494501e+01  1.5000000000e+01  1.0000000000e+01  2.0000000000e-01  4.2295630995e-01 -8.2254302624e+04  3.4010000000e+03  1.0000000000e+00  1.0000000000e+01  1.0000000000e+00  1.0000000000e+00  1.0000000000e+00  1.0000000000e+00
 vParam (new):   1.0000000000e-02  1.9078553383e-02 -2.4201558354e+01 -2.4185333273e+01 -2.4169494501e+01  1.5000000000e+01  1.0000000000e+01  2.0000000000e-01  4.2295630995e-01 -8.2254302624e+04  3.4010000000e+03  1.0000000000e+00  1.0000000000e+01  1.0000000000e+00  1.0000000000e+00  1.0000000000e+00  1.0000000000e+00

 Using branching cutoff scheme classic
SimpleFixedNodeBranch::checkParameters 
  Average Energy of a population  = -24.1711
  Energy Variance = 0.298833

  Using Non-local T-moves v0, M. Casula, PRB 74, 161102(R) (2006)
===== Memory Usage after the buffer registration =====
Available memory on node 0, free + buffers : 82251 MB
Memory footprint by rank 0 on node 0       : 138 MB
==================================================

=========================================================
  Start DMC
  File Root F.log.s023 append = no 
=========================================================
Using existing walkers 
  Resetting Properties of the walkers 1 x 13
  EstimatorManagerBase::add replace LocalEnergy estimator.
  Cannot make clones again. Use existing 1 clones
SimpleFixedNodeBranch::checkParameters 
  Average Energy of a population  = -24.0365
  Energy Variance = 6.7601

  Fluctuating population
  Persistent walkers are killed after 1 MC sweeps
  BranchInterval = 1
  Steps per block = 100
  Number of blocks = 90

  DMC Engine Initialization = 3.2615661621e-04 secs

 Warmup is completed after 100

  TauEff     = 9.8039668037e-03
 TauEff/Tau = 9.8039668037e-01
  Etrial     = -2.4119957954e+01
 Running average of energy = -2.4183866396e+01
                  Variance = 3.8193270872e-01
branch cutoff = 1.0000000000e+01 1.5000000000e+01
====================================================
  SimpleFixedNodeBranch::finalize after a DMC block
    QMC counter                   = 23
    time step                     = 0.01
    effective time step           = 0.00980397
    trial energy                  = -24.1881
    reference energy              = -24.1839
    reference variance            = 0.381933
    target walkers                = 4096
    branch cutoff                 = 10 15
    Max and minimum walkers per node= 9 1
    Feedback                      = 1
    QMC Status (BranchMode)       = 0000001111
====================================================
  QMC Execution time = 1.0114e+02 secs
  Reusing DMC
BRANCH resetRun
 SimpleFixedNodeBranch::resetRun detected changes in <parameter>'s 
 BranchMode : 0000001111 0000001111
  WalkerControlBase parameters 
    maxCopy = 2
    Max Walkers per MPI rank 9
    Min Walkers per MPI rank 1
    Using non-blocking send/recv
 iParam (old):                  0                 1                23              4096                 9                 1                 1                 0
 iParam (new):                200                 1                23              4096                 9                 1                 1                 0
 vParam (old):   1.0000000000e-02  9.8039711499e-03 -2.4188056310e+01 -2.4183914509e+01 -2.4186471665e+01  1.5000000000e+01  1.0000000000e+01  2.0000000000e-01  3.8193270872e-01 -2.1526102560e+05  8.9010000000e+03  1.0000000000e+00  1.0000000000e+01  1.0000000000e+00  1.0000000000e+00  1.0000000000e+00  1.0000000000e+00
 vParam (new):   5.0000000000e-03  9.8039711499e-03 -2.4188056310e+01 -2.4183914509e+01 -2.4186471665e+01  1.5000000000e+01  1.0000000000e+01  2.0000000000e-01  3.8193270872e-01 -2.1526102560e+05  8.9010000000e+03  1.0000000000e+00  1.0000000000e+01  1.0000000000e+00  1.0000000000e+00  1.0000000000e+00  1.0000000000e+00

 Using branching cutoff scheme classic
SimpleFixedNodeBranch::checkParameters 
  Average Energy of a population  = -24.1862
  Energy Variance = 0.27065

  Using Non-local T-moves v0, M. Casula, PRB 74, 161102(R) (2006)
===== Memory Usage after the buffer registration =====
Available memory on node 0, free + buffers : 82242 MB
Memory footprint by rank 0 on node 0       : 140 MB
==================================================

=========================================================
  Start DMC
  File Root F.log.s024 append = no 
=========================================================
Using existing walkers 
  Resetting Properties of the walkers 1 x 13
  EstimatorManagerBase::add replace LocalEnergy estimator.
  Cannot make clones again. Use existing 1 clones
SimpleFixedNodeBranch::checkParameters 
  Average Energy of a population  = -24.0599
  Energy Variance = 3.89119

  Fluctuating population
  Persistent walkers are killed after 1 MC sweeps
  BranchInterval = 1
  Steps per block = 200
  Number of blocks = 110

  DMC Engine Initialization = 1.2719631195e-03 secs

 Warmup is completed after 200

  TauEff     = 4.9592410031e-03
 TauEff/Tau = 9.9184820061e-01
  Etrial     = -2.4167713604e+01
 Running average of energy = -2.4183484166e+01
                  Variance = 3.4289847295e-01
branch cutoff = 1.0000000000e+01 1.5000000000e+01
====================================================
  SimpleFixedNodeBranch::finalize after a DMC block
    QMC counter                   = 24
    time step                     = 0.005
    effective time step           = 0.00495966
    trial energy                  = -24.1904
    reference energy              = -24.1831
    reference variance            = 0.342898
    target walkers                = 4096
    branch cutoff                 = 10 15
    Max and minimum walkers per node= 9 1
    Feedback                      = 1
    QMC Status (BranchMode)       = 0000001111
====================================================
  QMC Execution time = 2.4632e+02 secs
  Reusing DMC
BRANCH resetRun
 SimpleFixedNodeBranch::resetRun detected changes in <parameter>'s 
 BranchMode : 0000001111 0000001111
  WalkerControlBase parameters 
    maxCopy = 2
    Max Walkers per MPI rank 9
    Min Walkers per MPI rank 1
    Using non-blocking send/recv
 iParam (old):                  0                 1                24              4096                 9                 1                 1                 0
 iParam (new):                400                 1                24              4096                 9                 1                 1                 0
 vParam (old):   5.0000000000e-03  4.9596564673e-03 -2.4190415355e+01 -2.4183117828e+01 -2.4191261361e+01  1.5000000000e+01  1.0000000000e+01  2.0000000000e-01  3.4289847295e-01 -5.2721615991e+05  2.1801000000e+04  1.0000000000e+00  1.0000000000e+01  1.0000000000e+00  1.0000000000e+00  1.0000000000e+00  1.0000000000e+00
 vParam (new):   2.5000000000e-03  4.9596564673e-03 -2.4190415355e+01 -2.4183117828e+01 -2.4191261361e+01  1.5000000000e+01  1.0000000000e+01  2.0000000000e-01  3.4289847295e-01 -5.2721615991e+05  2.1801000000e+04  1.0000000000e+00  1.0000000000e+01  1.0000000000e+00  1.0000000000e+00  1.0000000000e+00  1.0000000000e+00

 Using branching cutoff scheme classic
SimpleFixedNodeBranch::checkParameters 
  Average Energy of a population  = -24.1917
  Energy Variance = 0.273779

  Using Non-local T-moves v0, M. Casula, PRB 74, 161102(R) (2006)
===== Memory Usage after the buffer registration =====
Available memory on node 0, free + buffers : 82228 MB
Memory footprint by rank 0 on node 0       : 142 MB
==================================================

=========================================================
  Start DMC
  File Root F.log.s025 append = no 
=========================================================
Using existing walkers 
  Resetting Properties of the walkers 1 x 13
  EstimatorManagerBase::add replace LocalEnergy estimator.
  Cannot make clones again. Use existing 1 clones
SimpleFixedNodeBranch::checkParameters 
  Average Energy of a population  = -24.0678
  Energy Variance = 11.5688

  Fluctuating population
  Persistent walkers are killed after 1 MC sweeps
  BranchInterval = 1
  Steps per block = 400
  Number of blocks = 130

  DMC Engine Initialization = 1.0638237000e-03 secs

 Warmup is completed after 400

  TauEff     = 2.4920340539e-03
 TauEff/Tau = 9.9681362155e-01
  Etrial     = -2.4473771116e+01
 Running average of energy = -2.4179348372e+01
                  Variance = 3.5871303592e-01
branch cutoff = 1.0000000000e+01 1.5000000000e+01
====================================================
  SimpleFixedNodeBranch::finalize after a DMC block
    QMC counter                   = 25
    time step                     = 0.0025
    effective time step           = 0.00249192
    trial energy                  = -24.1861
    reference energy              = -24.1822
    reference variance            = 0.358713
    target walkers                = 4096
    branch cutoff                 = 10 15
    Max and minimum walkers per node= 9 1
    Feedback                      = 1
    QMC Status (BranchMode)       = 0000001111
====================================================
  QMC Execution time = 5.8290e+02 secs
  Total Execution time = 1.0781e+03 secs

=========================================================
  A new xml input file : F.log.s025.cont.xml
TACC:  Shutdown complete. Exiting. 
