
 Primary working directories    : /global/cscratch1/sd/aannabe
 Secondary working directories  : /global/cscratch1/sd/aannabe
 Wavefunction directory         : /global/homes/a/aannabe/wfu/
 Main file repository           : /global/cscratch1/sd/aannabe/

 SHA1      : 19cd028119e0e09f93f0674bd8af7968d9b3eff6
 NAME      : 2015.1.36
 ARCHNAME  : linux/x86_64
 FC        : /opt/cray/pe/craype/2.5.14/bin/ftn
 BLASLIB   : -L/opt/intel/compilers_and_libraries_2018.1.163/linux/mkl/lib/intel64 -Wl,-_start-group -lmkl_intel_ilp64 -lmkl_intel_thread -lmkl_core -Wl,-_end-group -liomp5
 id        : lbl

 Nodes     nprocs
 nid00466     1

 Using customized tuning parameters: mindgm=7; mindgv=16; mindgc=1; mindgr=1; noblas=0; minvec=7
 default implementation of scratch files=df  

 ***,Kr
 memory,8,g
 gthresh,twoint=1.e-12
 
 gprint,basis,orbitals
 gexpec,ekin,pot
 
 angstrom
 geometry={
 1                                                                               ! Number of atoms
 Kr 0.0 0.0 0.0
 }
 
 basis={
 
 Including file /global/homes/a/aannabe/repos/pseudopotentiallibrary/recipes/Kr/ccECP/Kr.ccECP.molpro
 
                                   !include,/global/homes/a/aannabe/repos/pseudopotentiallibrary/recipes/Kr/ccECP/Kr.cc-pV5Z.molpro
                                  !include,/global/homes/a/aannabe/repos/pseudopotentiallibrary/recipes/Kr/ccECP/Kr.cc-pCV5Z.molpro
 Including file /global/homes/a/aannabe/repos/pseudopotentiallibrary/recipes/Kr/ccECP/Kr.aug-cc-pV5Z.molpro
 
 
 }
 
 {hf
 wf,8,1,0
 occ,1,1,1,0,1,0,0,0
                                                                                 !open,1.2
 closed,1,1,1,0,1,0,0,0
                                                                                 !sym,
 }
 scf(i)=energy
 
 _CC_NORM_MAX=2.0
 {ci
 maxit,100
 core
 }
 posthf(i)=energy
 
 table,scf,posthf,ekin,pot
 save,5.csv,new
 
 

 Variables initialized (889), CPU time= 0.00 sec
 Commands  initialized (702), CPU time= 0.00 sec, 572 directives.
 Default parameters read. Elapsed time= 0.11 sec

 Checking input...
 Passed
1


                                         ***  PROGRAM SYSTEM MOLPRO  ***
                                       Copyright, TTI GmbH Stuttgart, 2015
                                    Version 2015.1 linked Dec 29 2018 15:55:43


 **********************************************************************************************************************************
 LABEL *   Kr                                                                            
  64 bit serial version                                                                  DATE: 23-Jun-19          TIME: 18:24:16  
 **********************************************************************************************************************************

 SHA1:             19cd028119e0e09f93f0674bd8af7968d9b3eff6
 **********************************************************************************************************************************

 THRESHOLDS:

 ZERO    =  1.00D-12  ONEINT  =  1.00D-12  TWOINT  =  1.00D-12  PREFAC  =  1.00D-14  LOCALI  =  1.00D-09  EORDER  =  1.00D-04
 ENERGY  =  0.00D+00  ETEST   =  0.00D+00  EDENS   =  0.00D+00  THRDEDEF=  1.00D-06  GRADIENT=  1.00D-02  STEP    =  1.00D-03
 ORBITAL =  1.00D-05  CIVEC   =  1.00D-05  COEFF   =  1.00D-04  PRINTCI =  5.00D-02  PUNCHCI =  9.90D+01  OPTGRAD =  3.00D-04
 OPTENERG=  1.00D-06  OPTSTEP =  3.00D-04  THRGRAD =  1.00D-10  COMPRESS=  1.00D-11  VARMIN  =  1.00D-07  VARMAX  =  1.00D-03
 THRDOUB =  0.00D+00  THRDIV  =  1.00D-05  THRRED  =  1.00D-07  THRPSP  =  1.00D+00  THRDC   =  1.00D-10  THRCS   =  1.00D-10
 THRNRM  =  1.00D-08  THREQ   =  0.00D+00  THRDE   =  1.00D+00  THRREF  =  1.00D-05  SPARFAC =  1.00D+00  THRDLP  =  1.00D-07
 THRDIA  =  1.00D-10  THRDLS  =  1.00D-07  THRGPS  =  0.00D+00  THRKEX  =  0.00D+00  THRDIS  =  2.00D-01  THRVAR  =  1.00D-10
 THRLOC  =  1.00D-06  THRGAP  =  1.00D-06  THRLOCT = -1.00D+00  THRGAPT = -1.00D+00  THRORB  =  1.00D-06  THRMLTP =  0.00D+00
 THRCPQCI=  1.00D-10  KEXTA   =  0.00D+00  THRCOARS=  0.00D+00  SYMTOL  =  1.00D-06  GRADTOL =  1.00D-06  THROVL  =  1.00D-08
 THRORTH =  1.00D-08  GRID    =  1.00D-06  GRIDMAX =  1.00D-03  DTMAX   =  0.00D+00  THROCCDE=  1.00D-01  THROCCDE=  1.00D-01



 ZUNIT=ANG
 

Geometry recognized as XYZ


 Variable memory set to 8000000000 words,  buffer space   230000 words

 SETTING BASIS          =    USERDEF


 Recomputing integrals since basis changed


 Using spherical harmonics



 PROGRAM * SEWARD (Integral evaluation for generally contracted gaussian basis sets)     Author: Roland Lindh, 1990

 Geometry written to block  1 of record 700

 Orientation using atomic masses  
 Molecule type: Atom
 Symmetry elements: X,Y,Z
 Rotational constants:       0.0000000      0.0000000      0.0000000 GHz  (calculated with average atomic masses)

 Point group  D2h 



 ATOMIC COORDINATES

 NR  ATOM    CHARGE       X              Y              Z

   1  KR      8.00    0.000000000    0.000000000    0.000000000


          KR  CORE POTENTIAL

          f POTENTIAL

 POWERS             1              3              2              2
 EXPONENTIALS   10.79424       13.32339       9.292050       20.14896    
 COEFFICIENTS   8.000000       86.35390      -11.11453       10.22952    

          s - f POTENTIAL

 POWERS             2              2
 EXPONENTIALS   5.490729       3.863012    
 COEFFICIENTS   92.88955       12.92948    

          p - f POTENTIAL

 POWERS             2              2
 EXPONENTIALS   4.038577       3.306789    
 COEFFICIENTS   43.09952       9.509760    

          d - f POTENTIAL

 POWERS             2              2
 EXPONENTIALS   4.213480       1.549897    
 COEFFICIENTS   17.80494       4.589115    


 BASIS DATA

   Nr Sym  Nuc  Type         Exponents   Contraction coefficients

    1.1 Ag    1  1s          59.995647    -0.000203
                             27.757709     0.001794
                             12.842438    -0.019252
                              5.941709     0.171194
                              2.749003    -0.477847
                              1.271859    -0.119686
                              0.588441     0.568434
                              0.272249     0.564028
                              0.125959     0.157608
    2.1 Ag    1  1s           0.799541     1.000000
    3.1 Ag    1  1s           0.459102     1.000000
    4.1 Ag    1  1s           0.263619     1.000000
    5.1 Ag    1  1s           0.151372     1.000000
    6.1 Ag    1  1s           0.060549     1.000000
    7.1 Ag    1  3d0          2.309916     1.000000
    8.1 Ag    1  3d2+         2.309916     1.000000
    9.1 Ag    1  3d0          1.071164     1.000000
   10.1 Ag    1  3d2+         1.071164     1.000000
   11.1 Ag    1  3d0          0.496724     1.000000
   12.1 Ag    1  3d2+         0.496724     1.000000
   13.1 Ag    1  3d0          0.230343     1.000000
   14.1 Ag    1  3d2+         0.230343     1.000000
   15.1 Ag    1  3d0          0.092137     1.000000
   16.1 Ag    1  3d2+         0.092137     1.000000
   17.1 Ag    1  5g0          1.169259     1.000000
   18.1 Ag    1  5g4+         1.169259     1.000000
   19.1 Ag    1  5g2+         1.169259     1.000000
   20.1 Ag    1  5g0          0.522994     1.000000
   21.1 Ag    1  5g4+         0.522994     1.000000
   22.1 Ag    1  5g2+         0.522994     1.000000
   23.1 Ag    1  5g0          0.209198     1.000000
   24.1 Ag    1  5g4+         0.209198     1.000000
   25.1 Ag    1  5g2+         0.209198     1.000000
    1.2 B3u   1  2px         24.020781     0.000106
                             11.612963    -0.000892
                              5.614344     0.020380
                              2.714282    -0.155160
                              1.312233     0.057643
                              0.634405     0.355559
                              0.306706     0.426667
                              0.148279     0.271151
                              0.071686     0.067680
    2.2 B3u   1  2px          1.290452     1.000000
    3.2 B3u   1  2px          0.557200     1.000000
    4.2 B3u   1  2px          0.240591     1.000000
    5.2 B3u   1  2px          0.103884     1.000000
    6.2 B3u   1  2px          0.041554     1.000000
    7.2 B3u   1  4f1+         1.241282     1.000000
    8.2 B3u   1  4f3+         1.241282     1.000000
    9.2 B3u   1  4f1+         0.651246     1.000000
   10.2 B3u   1  4f3+         0.651246     1.000000
   11.2 B3u   1  4f1+         0.341680     1.000000
   12.2 B3u   1  4f3+         0.341680     1.000000
   13.2 B3u   1  4f1+         0.136672     1.000000
   14.2 B3u   1  4f3+         0.136672     1.000000
   15.2 B3u   1  6h1+         0.965141     1.000000
   16.2 B3u   1  6h3+         0.965141     1.000000
   17.2 B3u   1  6h5+         0.965141     1.000000
   18.2 B3u   1  6h1+         0.386056     1.000000
   19.2 B3u   1  6h3+         0.386056     1.000000
   20.2 B3u   1  6h5+         0.386056     1.000000
    1.3 B2u   1  2py         24.020781     0.000106
                             11.612963    -0.000892
                              5.614344     0.020380
                              2.714282    -0.155160
                              1.312233     0.057643
                              0.634405     0.355559
                              0.306706     0.426667
                              0.148279     0.271151
                              0.071686     0.067680
    2.3 B2u   1  2py          1.290452     1.000000
    3.3 B2u   1  2py          0.557200     1.000000
    4.3 B2u   1  2py          0.240591     1.000000
    5.3 B2u   1  2py          0.103884     1.000000
    6.3 B2u   1  2py          0.041554     1.000000
    7.3 B2u   1  4f1-         1.241282     1.000000
    8.3 B2u   1  4f3-         1.241282     1.000000
    9.3 B2u   1  4f1-         0.651246     1.000000
   10.3 B2u   1  4f3-         0.651246     1.000000
   11.3 B2u   1  4f1-         0.341680     1.000000
   12.3 B2u   1  4f3-         0.341680     1.000000
   13.3 B2u   1  4f1-         0.136672     1.000000
   14.3 B2u   1  4f3-         0.136672     1.000000
   15.3 B2u   1  6h1-         0.965141     1.000000
   16.3 B2u   1  6h3-         0.965141     1.000000
   17.3 B2u   1  6h5-         0.965141     1.000000
   18.3 B2u   1  6h1-         0.386056     1.000000
   19.3 B2u   1  6h3-         0.386056     1.000000
   20.3 B2u   1  6h5-         0.386056     1.000000
    1.4 B1g   1  3d2-         2.309916     1.000000
    2.4 B1g   1  3d2-         1.071164     1.000000
    3.4 B1g   1  3d2-         0.496724     1.000000
    4.4 B1g   1  3d2-         0.230343     1.000000
    5.4 B1g   1  3d2-         0.092137     1.000000
    6.4 B1g   1  5g2-         1.169259     1.000000
    7.4 B1g   1  5g4-         1.169259     1.000000
    8.4 B1g   1  5g2-         0.522994     1.000000
    9.4 B1g   1  5g4-         0.522994     1.000000
   10.4 B1g   1  5g2-         0.209198     1.000000
   11.4 B1g   1  5g4-         0.209198     1.000000
    1.5 B1u   1  2pz         24.020781     0.000106
                             11.612963    -0.000892
                              5.614344     0.020380
                              2.714282    -0.155160
                              1.312233     0.057643
                              0.634405     0.355559
                              0.306706     0.426667
                              0.148279     0.271151
                              0.071686     0.067680
    2.5 B1u   1  2pz          1.290452     1.000000
    3.5 B1u   1  2pz          0.557200     1.000000
    4.5 B1u   1  2pz          0.240591     1.000000
    5.5 B1u   1  2pz          0.103884     1.000000
    6.5 B1u   1  2pz          0.041554     1.000000
    7.5 B1u   1  4f0          1.241282     1.000000
    8.5 B1u   1  4f2+         1.241282     1.000000
    9.5 B1u   1  4f0          0.651246     1.000000
   10.5 B1u   1  4f2+         0.651246     1.000000
   11.5 B1u   1  4f0          0.341680     1.000000
   12.5 B1u   1  4f2+         0.341680     1.000000
   13.5 B1u   1  4f0          0.136672     1.000000
   14.5 B1u   1  4f2+         0.136672     1.000000
   15.5 B1u   1  6h2+         0.965141     1.000000
   16.5 B1u   1  6h4+         0.965141     1.000000
   17.5 B1u   1  6h0          0.965141     1.000000
   18.5 B1u   1  6h2+         0.386056     1.000000
   19.5 B1u   1  6h4+         0.386056     1.000000
   20.5 B1u   1  6h0          0.386056     1.000000
    1.6 B2g   1  3d1+         2.309916     1.000000
    2.6 B2g   1  3d1+         1.071164     1.000000
    3.6 B2g   1  3d1+         0.496724     1.000000
    4.6 B2g   1  3d1+         0.230343     1.000000
    5.6 B2g   1  3d1+         0.092137     1.000000
    6.6 B2g   1  5g1+         1.169259     1.000000
    7.6 B2g   1  5g3+         1.169259     1.000000
    8.6 B2g   1  5g1+         0.522994     1.000000
    9.6 B2g   1  5g3+         0.522994     1.000000
   10.6 B2g   1  5g1+         0.209198     1.000000
   11.6 B2g   1  5g3+         0.209198     1.000000
    1.7 B3g   1  3d1-         2.309916     1.000000
    2.7 B3g   1  3d1-         1.071164     1.000000
    3.7 B3g   1  3d1-         0.496724     1.000000
    4.7 B3g   1  3d1-         0.230343     1.000000
    5.7 B3g   1  3d1-         0.092137     1.000000
    6.7 B3g   1  5g1-         1.169259     1.000000
    7.7 B3g   1  5g3-         1.169259     1.000000
    8.7 B3g   1  5g1-         0.522994     1.000000
    9.7 B3g   1  5g3-         0.522994     1.000000
   10.7 B3g   1  5g1-         0.209198     1.000000
   11.7 B3g   1  5g3-         0.209198     1.000000
    1.8 Au    1  4f2-         1.241282     1.000000
    2.8 Au    1  4f2-         0.651246     1.000000
    3.8 Au    1  4f2-         0.341680     1.000000
    4.8 Au    1  4f2-         0.136672     1.000000
    5.8 Au    1  6h4-         0.965141     1.000000
    6.8 Au    1  6h2-         0.965141     1.000000
    7.8 Au    1  6h4-         0.386056     1.000000
    8.8 Au    1  6h2-         0.386056     1.000000

 NUCLEAR CHARGE:                    8
 NUMBER OF PRIMITIVE AOS:         213
 NUMBER OF SYMMETRY AOS:          158
 NUMBER OF CONTRACTIONS:          126   (  25Ag  +  20B3u +  20B2u +  11B1g +  20B1u +  11B2g +  11B3g +   8Au  )
 NUMBER OF CORE ORBITALS:           0   (   0Ag  +   0B3u +   0B2u +   0B1g +   0B1u +   0B2g +   0B3g +   0Au  )
 NUMBER OF VALENCE ORBITALS:        4   (   1Ag  +   1B3u +   1B2u +   0B1g +   1B1u +   0B2g +   0B3g +   0Au  )


 NUCLEAR REPULSION ENERGY    0.00000000

 EXTRA SYMMETRY OF AOS IN SYMMETRY 1:   1 1 1 1 1 1 2 3 2 3   2 3 2 3 2 3 4 5 6 4   5 6 4 5 6
 EXTRA SYMMETRY OF AOS IN SYMMETRY 2:   1 1 1 1 1 1 2 3 2 3   2 3 2 3 4 5 6 4 5 6
 EXTRA SYMMETRY OF AOS IN SYMMETRY 3:   1 1 1 1 1 1 2 3 2 3   2 3 2 3 4 5 6 4 5 6
 EXTRA SYMMETRY OF AOS IN SYMMETRY 4:   1 1 1 1 1 2 3 2 3 2   3
 EXTRA SYMMETRY OF AOS IN SYMMETRY 5:   1 1 1 1 1 1 2 3 2 3   2 3 2 3 4 5 6 4 5 6
 EXTRA SYMMETRY OF AOS IN SYMMETRY 6:   1 1 1 1 1 2 3 2 3 2   3
 EXTRA SYMMETRY OF AOS IN SYMMETRY 7:   1 1 1 1 1 2 3 2 3 2   3
 EXTRA SYMMETRY OF AOS IN SYMMETRY 8:   1 1 1 1 2 3 2 3

 Eigenvalues of metric

         1 0.300E-03 0.459E-02 0.270E-01 0.270E-01 0.346E-01 0.151E+00 0.151E+00 0.205E+00
         2 0.135E-02 0.196E-01 0.427E-01 0.427E-01 0.115E+00 0.326E+00 0.326E+00 0.483E+00
         3 0.135E-02 0.196E-01 0.427E-01 0.427E-01 0.115E+00 0.326E+00 0.326E+00 0.483E+00
         4 0.270E-01 0.151E+00 0.211E+00 0.211E+00 0.545E+00 0.840E+00 0.840E+00 0.142E+01
         5 0.135E-02 0.196E-01 0.427E-01 0.427E-01 0.115E+00 0.326E+00 0.326E+00 0.483E+00
         6 0.270E-01 0.151E+00 0.211E+00 0.211E+00 0.545E+00 0.840E+00 0.840E+00 0.142E+01
         7 0.270E-01 0.151E+00 0.211E+00 0.211E+00 0.545E+00 0.840E+00 0.840E+00 0.142E+01
         8 0.427E-01 0.326E+00 0.483E+00 0.483E+00 0.106E+01 0.152E+01 0.152E+01 0.258E+01


 Contracted 2-electron integrals neglected if value below      1.0D-12
 AO integral compression algorithm  1   Integral accuracy      1.0D-12

     31.457 MB (compressed) written to integral file ( 56.0%)


 NUMBER OF SORTED TWO-ELECTRON INTEGRALS:    4156552.     BUFFER LENGTH:  32768
 NUMBER OF SEGMENTS:   1  SEGMENT LENGTH:    4156552      RECORD LENGTH: 524288

 Memory used in sort:       4.71 MW

 SORT1 READ     6989366. AND WROTE     2907704. INTEGRALS IN      9 RECORDS. CPU TIME:     0.17 SEC, REAL TIME:     0.24 SEC
 SORT2 READ     2907704. AND WROTE     4156552. INTEGRALS IN    120 RECORDS. CPU TIME:     0.16 SEC, REAL TIME:     0.30 SEC

 FILE SIZES:   FILE 1:    51.7 MBYTE,  FILE 4:    37.8 MBYTE,   TOTAL:     89.5 MBYTE

 OPERATOR DM      FOR CENTER  0  COORDINATES:    0.000000    0.000000    0.000000
 OPERATOR EKIN    FOR CENTER  0  COORDINATES:    0.000000    0.000000    0.000000
 OPERATOR POT     FOR CENTER  0  COORDINATES:    0.000000    0.000000    0.000000


 **********************************************************************************************************************************
 DATASETS  * FILE   NREC   LENGTH (MB)   RECORD NAMES
              1      20       39.07       500      610      700      900      950      970     1000      129      960     1100   
                                          VAR    BASINP    GEOM    SYMINP    ZMAT    AOBASIS   BASIS     P2S    ABASIS      S 
                                         1400     1410     1420     1200     1210     1080     1600     1650     1300     1700   
                                         EKIN       V       ECP      H0       H01     AOSYM     SMH    MOLCAS    ERIS     OPER   

 PROGRAMS   *        TOTAL       INT
 CPU TIMES  *         2.89      2.80
 REAL TIME  *        15.07 SEC
 DISK USED  *        89.80 MB      
 **********************************************************************************************************************************


 PROGRAM * RHF-SCF (CLOSED SHELL)       Authors: W. Meyer, H.-J. Werner


 NUMBER OF ELECTRONS:       4+    4-    SPACE SYMMETRY=1    SPIN SYMMETRY: Singlet 
 CONVERGENCE THRESHOLDS:    1.00E-05 (Density)    1.00E-07 (Energy)
 MAX. NUMBER OF ITERATIONS:       60
 INTERPOLATION TYPE:            DIIS
 INTERPOLATION STEPS:              2 (START)      1 (STEP)
 LEVEL SHIFTS:                  0.00 (CLOSED)  0.00 (OPEN) 

 Number of closed-shell orbitals:    4 (   1   1   1   0   1   0   0   0 )



   Atom=KR basis=ECP28MWB_GUESS    lmin=0  lmax=1

 Orbital guess generated from atomic densities. Full valence occupancy:    1   1   1   0   1   0   0   0


 Molecular orbital dump at record        2100.2

 ITERATION    DDIFF          GRAD             ENERGY        2-EL.EN.            DIPOLE MOMENTS         DIIS   ORB.
    1      0.000D+00      0.000D+00       -18.22802354     25.281889    0.00000    0.00000    0.00000    0    start
    2      0.000D+00      0.161D-02       -18.22806126     25.286405    0.00000    0.00000    0.00000    1    diag
    3      0.623D-03      0.977D-04       -18.22806205     25.286306    0.00000    0.00000    0.00000    2    diag
    4      0.116D-03      0.140D-04       -18.22806208     25.286318    0.00000    0.00000    0.00000    3    diag
    5      0.180D-04      0.584D-06       -18.22806208     25.286289    0.00000    0.00000    0.00000    4    diag
    6      0.744D-06      0.122D-06       -18.22806208     25.286291    0.00000    0.00000    0.00000    0    orth

 Final occupancy:   1   1   1   0   1   0   0   0

 !RHF STATE 1.1 Energy                -18.228062076575
 Nuclear energy                         0.00000000
 One-electron energy                  -30.87120756
 Two-electron energy                   12.64314548
 Virial quotient                       -2.96066051
 !RHF STATE 1.1 Dipole moment           0.00000000     0.00000000     0.00000000
 Dipole moment /Debye                   0.00000000     0.00000000     0.00000000
 

 !RHF expec          <1.1|EKIN|1.1>     6.156755234616
 
 !RHF expec           <1.1|POT|1.1>    -4.941074046244

 ELECTRON ORBITALS
 =================


   Orb  Occ    Energy  Couls-En    Coefficients

                                   1 1s      1 1s      1 1s      1 1s      1 1s      1 1s      1 3d0     1 3d2+    1 3d0     1 3d2+ 
                                   1 3d0     1 3d2+    1 3d0     1 3d2+    1 3d0     1 3d2+    1 5g0     1 5g4+    1 5g2+    1 5g0  
                                   1 5g4+    1 5g2+    1 5g0     1 5g4+    1 5g2+ 

   1.1   2    -1.2174   -5.7007  1.001083  0.003658 -0.010607  0.013142 -0.009455  0.002642  0.000000 -0.000000 -0.000000  0.000000
                                 0.000000 -0.000000  0.000000  0.000000 -0.000000 -0.000000  0.000000 -0.000000  0.000000 -0.000000
                                 0.000000 -0.000000  0.000000 -0.000000 -0.000000

                                   1 2px     1 2px     1 2px     1 2px     1 2px     1 2px     1 4f1+    1 4f3+    1 4f1+    1 4f3+ 
                                   1 4f1+    1 4f3+    1 4f1+    1 4f3+    1 6h1+    1 6h3+    1 6h5+    1 6h1+    1 6h3+    1 6h5+ 


   1.2   2    -0.5250   -4.1758  1.000620  0.000246 -0.000918  0.000857 -0.001585  0.001030  0.000000  0.000000 -0.000000 -0.000000
                                 0.000000  0.000000 -0.000000 -0.000000 -0.000000  0.000000 -0.000000  0.000000 -0.000000  0.000000

                                   1 2py     1 2py     1 2py     1 2py     1 2py     1 2py     1 4f1-    1 4f3-    1 4f1-    1 4f3- 
                                   1 4f1-    1 4f3-    1 4f1-    1 4f3-    1 6h1-    1 6h3-    1 6h5-    1 6h1-    1 6h3-    1 6h5- 


   1.3   2    -0.5250   -4.1758  1.000620  0.000246 -0.000918  0.000857 -0.001585  0.001030  0.000000 -0.000000 -0.000000  0.000000
                                 0.000000 -0.000000 -0.000000  0.000000 -0.000000 -0.000000 -0.000000  0.000000  0.000000  0.000000

                                   1 2pz     1 2pz     1 2pz     1 2pz     1 2pz     1 2pz     1 4f0     1 4f2+    1 4f0     1 4f2+ 
                                   1 4f0     1 4f2+    1 4f0     1 4f2+    1 6h2+    1 6h4+    1 6h0     1 6h2+    1 6h4+    1 6h0  


   1.5   2    -0.5250   -4.1758  1.000620  0.000246 -0.000918  0.000857 -0.001585  0.001030 -0.000000  0.000000  0.000000 -0.000000
                                 0.000000  0.000000  0.000000 -0.000000  0.000000 -0.000000 -0.000000 -0.000000  0.000000  0.000000

 HOMO      1.2    -0.525015 =     -14.2864eV
 LUMO      2.1     0.102448 =       2.7878eV
 LUMO-HOMO         0.627463 =      17.0741eV


 **********************************************************************************************************************************
 DATASETS  * FILE   NREC   LENGTH (MB)   RECORD NAMES
              1      20       39.07       500      610      700      900      950      970     1000      129      960     1100   
                                          VAR    BASINP    GEOM    SYMINP    ZMAT    AOBASIS   BASIS     P2S    ABASIS      S 
                                         1400     1410     1420     1200     1210     1080     1600     1650     1300     1700   
                                         EKIN       V       ECP      H0       H01     AOSYM     SMH    MOLCAS    ERIS     OPER   

              2       4        2.81       700     1000      520     2100   
                                         GEOM     BASIS   MCVARS     RHF  

 PROGRAMS   *        TOTAL        HF       INT
 CPU TIMES  *         3.02      0.12      2.80
 REAL TIME  *        15.39 SEC
 DISK USED  *        89.80 MB      
 **********************************************************************************************************************************
 SETTING SCF(I)         =       -18.22806208  AU                              
 SETTING _CC_NORM_MAX   =         2.00000000                                  


 PROGRAM * CI (Multireference internally contracted CI)     Authors: H.-J. Werner, P.J. Knowles, 1987


 Convergence thresholds:  THRVAR = 1.00D-08  THRDEN = 1.00D-06

 Number of optimized states:  1  Roots:   1
 Number of reference states:  1  Roots:   1

 Reference symmetry:                   1   Singlet 
 Number of electrons:                  8
 Maximum number of shells:             3
 Maximum number of spin couplings:     2

 Reference space:        1 conf        1 CSFs
 N elec internal:        1 conf        1 CSFs
 N-1 el internal:        4 conf        4 CSFs
 N-2 el internal:       10 conf       16 CSFs

 Number of electrons in valence space:                      8
 Maximum number of open shell orbitals in reference space:  0
 Maximum number of open shell orbitals in internal spaces:  4


 Number of closed-shell orbitals:   4 (   1   1   1   0   1   0   0   0 )
 Number of external orbitals:     122 (  24  19  19  11  19  11  11   8 )

 Molecular orbitals read from record     2100.2  Type=RHF/CANONICAL (state 1.1)

 Integral transformation finished. Total CPU:   0.03 sec, npass=  1  Memory used:   0.10 MW

 Number of p-space configurations:   1

 Reference wavefunction optimized for reference space (refopt=1)

 State     Reference Energy 
   1         -18.22806208

 Number of blocks in overlap matrix:    16   Smallest eigenvalue:  0.10D+01
 Number of N-2 electron functions:      16
 Number of N-1 electron functions:       4

 Number of internal configurations:                    1
 Number of singly external configurations:            81
 Number of doubly external configurations:         15576
 Total number of contracted configurations:        15658
 Total number of uncontracted configurations:      15658

 Diagonal Coupling coefficients finished.               Storage:     615 words, CPU-Time:      0.00 seconds.
 Energy denominators for pairs finished in 1 passes.    Storage:   15397 words, CPU-time:      0.00 seconds.

  ITER. STATE  ROOT     SQ.NORM     CORR.ENERGY   TOTAL ENERGY   ENERGY CHANGE       DEN1      VAR(S)    VAR(P)      TIME
    1     1     1     1.00000000     0.00000000   -18.22806208    -0.00000000    -0.23662716  0.11D-12  0.79D-01     0.05
    2     1     1     1.06622034    -0.21650982   -18.44457190    -0.21650982    -0.00311484  0.14D-03  0.76D-03     0.10
    3     1     1     1.06751083    -0.21974548   -18.44780755    -0.00323566    -0.00006960  0.23D-05  0.18D-04     0.16
    4     1     1     1.06778153    -0.21981845   -18.44788053    -0.00007298    -0.00000191  0.48D-07  0.52D-06     0.20
    5     1     1     1.06786629    -0.21982058   -18.44788265    -0.00000212    -0.00000006  0.34D-08  0.17D-07     0.25
    6     1     1     1.06787374    -0.21982065   -18.44788272    -0.00000007    -0.00000000  0.50D-09  0.34D-09     0.30


 =====================================
 Analysis of CPU times by interactions
 =====================================

       I      S      P

 I   0.0%
 S   0.0%   0.0%
 P   0.0%   0.0%   6.7%

 Initialization:  16.7%
 Other:           76.7%

 Total CPU:        0.3 seconds
 =====================================



 Reference coefficients greater than 0.0500000
 =============================================
 2222           0.9676985



 RESULTS FOR STATE 1.1
 =====================

 Coefficient of reference function:   C(0) = 0.96769845 (fixed)   0.96769845 (relaxed)

 Energy contributions of configuration classes

 CLASS          SQ.NORM        ECORR1        ECORR2
 +++++++++++++++++++++++++++++++++++++++++++++++++++
 Internals    0.00000000    0.00000000    0.00000000
 Singles      0.00012979    0.00000000   -0.00002661
 Pairs        0.06774395   -0.21982065   -0.21979404
 Total        1.06787374   -0.21982065   -0.21982065
 +++++++++++++++++++++++++++++++++++++++++++++++++++


 Reference energy                     -18.22806208
 Nuclear energy                         0.00000000
 Kinetic energy                         6.32677745
 One electron energy                  -30.73959018
 Two electron energy                   12.29170746
 Virial quotient                       -2.91584189
 Correlation energy                    -0.21982065
 !CI(SD) STATE 1.1 Energy             -18.447882724474

 Properties without orbital relaxation:

 !CI(SD) STATE 1.1 Dipole moment        0.00000000     0.00000000     0.00000000
 Dipole moment /Debye                   0.00000000     0.00000000     0.00000000

 Cluster corrected energies           -18.46280278 (Davidson, fixed reference)
 Cluster corrected energies           -18.46280278 (Davidson, relaxed reference)

 Cluster corrected energies           -18.45945516 (Pople, fixed reference)
 Cluster corrected energies           -18.45945516 (Pople, relaxed reference)

 

 !CI(SD) expec       <1.1|EKIN|1.1>     6.326777447492
 
 !CI(SD) expec        <1.1|POT|1.1>    -4.947355566594


 **********************************************************************************************************************************
 DATASETS  * FILE   NREC   LENGTH (MB)   RECORD NAMES
              1      21       39.38       500      610      700      900      950      970     1000      129      960     1100   
                                          VAR    BASINP    GEOM    SYMINP    ZMAT    AOBASIS   BASIS     P2S    ABASIS      S 
                                         1400     1410     1420     1200     1210     1080     1600     1650     1300     1700   
                                         EKIN       V       ECP      H0       H01     AOSYM     SMH    MOLCAS    ERIS     OPER   
                                         1380   
                                         JKOP   

              2       4        2.81       700     1000      520     2100   
                                         GEOM     BASIS   MCVARS     RHF  

 PROGRAMS   *        TOTAL        CI        HF       INT
 CPU TIMES  *         3.34      0.32      0.12      2.80
 REAL TIME  *        16.32 SEC
 DISK USED  *        89.80 MB      
 **********************************************************************************************************************************
 SETTING POSTHF(I)      =       -18.44788272  AU                              
                                                                                                                                                                                                                                                                

        SCF            POSTHF       EKIN          POT
    -18.22806208   -18.44788272   6.32677745   -4.94735557
                                                  

 CI/USERDEF energy=    -18.447882724474

        CI              HF-SCF  
    -18.44788272    -18.22806208
 **********************************************************************************************************************************
 Molpro calculation terminated
 Variable memory released
