TACC:  Starting up job 3912536 
TACC:  Starting parallel tasks... 
  Input file(s): As.log.qmc.in-wfj.xml 

=====================================================
                    QMCPACK 3.7.9

       (c) Copyright 2003-  QMCPACK developers

                    Please cite:
 J. Kim et al. J. Phys. Cond. Mat. 30 195901 (2018)
      https://doi.org/10.1088/1361-648X/aab9c3

  Git branch: develop
  Last git commit: 9a049a3fb3e0d7110d61a924a52203fd8296522a
  Last git commit date: Mon Jul 1 13:42:43 2019 -0500
  Last git commit subject: Merge pull request #1686 from ye-luo/rename-to-LCAOHDFParser
=====================================================
  Global options 

  Total number of MPI ranks = 1024
  Number of MPI groups      = 1
  MPI group ID              = 0
  Number of ranks in group  = 1024
  MPI ranks per node        = 64
  OMP 1st level threads     = 1
  OMP nested threading disabled or only 1 thread on the 2nd level

  Precision used in this calculation, see definitions in the manual:
  Base precision      = double
  Full precision      = double

  Structure-of-arrays (SoA) optimization enabled

  Input XML = As.log.qmc.in-wfj.xml

  Project = As.log
  date    = 2019-07-01 18:37:39 CDT
  host    = c405-014.stampede2.tacc.utexas.edu

 Random Number
 -------------
  Offset for the random number seeds based on time: 323

  Range of prime numbers to use as seeds over processors and threads = 2153-11131


 Particle Set 
 ------------
  Name: ion0
  All the species have the same mass 1
  Particle set size: 1

 Particle Set 
 ------------
  Name: e
  All the species have the same mass 1
  Particle set size: 5

 Wavefunction setup: 
 ------------------- 
  Name: psi0
  LCAO: SoaAtomicBasisSet<MultiQuintic,1>
Reading BasisSet from HDF5 file:As.log.h5
<input node="atomicBasisSet" name="gaussian" expandYlm="pyscf" angular="spherical" elementType="As" normalized="no" type="Numerical" expM="0" />
  AO BasisSet for As
   Spherical Harmonics contain (-1)^m factor
   Angular momentum m expanded as -l, ... ,l, with the exception of L=1 (1,-1,0)
   Grid is created by the input paremters in h5
    Using log grid ri = 1e-06 rf = 100 npts = 1001
   R(n,l,m,s) 0 0 0 0
   R(n,l,m,s) 1 0 0 0
   R(n,l,m,s) 2 0 0 0
   R(n,l,m,s) 3 1 0 0
   R(n,l,m,s) 4 1 0 0
   R(n,l,m,s) 5 1 0 0
   R(n,l,m,s) 6 2 0 0
   R(n,l,m,s) 7 2 0 0
   R(n,l,m,s) 8 3 0 0
Expanding Ylm as L=1 as (1,-1,0) and L>1 as -l,-l+1,...,l-1,l
   Adding 1 spherical orbitals
   Adding 1 spherical orbitals
   Adding 1 spherical orbitals
   Adding 3 spherical orbitals
   Adding 3 spherical orbitals
   Adding 3 spherical orbitals
   Adding 5 spherical orbitals
   Adding 5 spherical orbitals
   Adding 7 spherical orbitals
  Setting cutoff radius 13.1826

   Maximum Angular Momentum  = 3
   Number of Radial functors = 9
   Basis size                = 29

  Created SPOSet builder named 'LCAOBSet' of type molecularorbital
Reuse SPOSetBuilder "LCAOBSet" type MolecularOrbital
  Building SPOSet '' with '' basis set.
Reuse SPOSetBuilder "LCAOBSet" type MolecularOrbital
  Building SPOSet '' with '' basis set.
  Creating a determinant updet group=0 sposet=updet
  Reusing a SPO set updet
Using DiracDeterminant with DelayedUpdate engine
Using rank-1 Sherman-Morrison Fahy update

  Creating a determinant downdet group=1 sposet=downdet
  Reusing a SPO set downdet
Using DiracDeterminant with DelayedUpdate engine
Using rank-1 Sherman-Morrison Fahy update

  FermionWF = SlaterDet

   Jastrow
   -------
    Name: J2   Type: Two-Body   Function: Bspline

    Radial function for species: u - u
     Number of parameters: 10
     Cusp: -0.25
     Cutoff radius: 10

     Name                        Value Type Recompute Use Index
     ---- ---------------------------- ---- --------- --- -----
     uu_0                 6.079244e-01    1         1  ON     0
     uu_1                 4.322617e-01    1         1  ON     1
     uu_2                 2.848067e-01    1         1  ON     2
     uu_3                 1.675367e-01    1         1  ON     3
     uu_4                 7.410947e-02    1         1  ON     4
     uu_5                 1.094215e-03    1         1  ON     5
     uu_6                -5.255316e-02    1         1  ON     6
     uu_7                -8.941706e-02    1         1  ON     7
     uu_8                -1.009980e-01    1         1  ON     8
     uu_9                -1.011712e-01    1         1  ON     9

    Radial function for species: u - d
     Number of parameters: 10
     Cusp: -0.5
     Cutoff radius: 10

     Name                        Value Type Recompute Use Index
     ---- ---------------------------- ---- --------- --- -----
     ud_0                 7.657124e-01    1         1  ON     0
     ud_1                 4.287644e-01    1         1  ON     1
     ud_2                 2.106939e-01    1         1  ON     2
     ud_3                 7.031663e-02    1         1  ON     3
     ud_4                -2.778092e-02    1         1  ON     4
     ud_5                -9.835490e-02    1         1  ON     5
     ud_6                -1.478977e-01    1         1  ON     6
     ud_7                -1.819223e-01    1         1  ON     7
     ud_8                -1.885213e-01    1         1  ON     8
     ud_9                -1.865207e-01    1         1  ON     9


   Jastrow
   -------
    Name: J1   Type: One-Body   Function: Bspline

    Radial function for element: As
     Number of parameters: 10
     Cusp: 0
     Cutoff radius: 10

      Name                        Value Type Recompute Use Index
     ----- ---------------------------- ---- --------- --- -----
     eAs_0                -1.134625e+00    1         1  ON     0
     eAs_1                -6.151750e-01    1         1  ON     1
     eAs_2                -4.369636e-01    1         1  ON     2
     eAs_3                -1.236152e-01    1         1  ON     3
     eAs_4                 1.215028e-01    1         1  ON     4
     eAs_5                 3.451435e-01    1         1  ON     5
     eAs_6                 4.878542e-01    1         1  ON     6
     eAs_7                 5.700858e-01    1         1  ON     7
     eAs_8                 5.117496e-01    1         1  ON     8
     eAs_9                 2.639617e-01    1         1  ON     9


   Jastrow
   -------
    Name: J3   Type: eeI   Function: polynomial

     Ion: As   electron-electron: u - u
      Number of parameters for e-e: 3, for e-I: 3
      Cutoff radius: 10

Expected 26 parameters, but found 0 in PolynomialFunctor3D.
         Name                        Value Type Recompute Use Index
      ------- ---------------------------- ---- --------- --- -----
       uuAs_0                 0.000000e+00    1         1  ON     0
       uuAs_1                 0.000000e+00    1         1  ON     1
       uuAs_2                 0.000000e+00    1         1  ON     2
       uuAs_3                 0.000000e+00    1         1  ON     3
       uuAs_4                 0.000000e+00    1         1  ON     4
       uuAs_5                 0.000000e+00    1         1  ON     5
       uuAs_6                 0.000000e+00    1         1  ON     6
       uuAs_7                 0.000000e+00    1         1  ON     7
       uuAs_8                 0.000000e+00    1         1  ON     8
       uuAs_9                 0.000000e+00    1         1  ON     9
      uuAs_10                 0.000000e+00    1         1  ON    10
      uuAs_11                 0.000000e+00    1         1  ON    11
      uuAs_12                 0.000000e+00    1         1  ON    12
      uuAs_13                 0.000000e+00    1         1  ON    13
      uuAs_14                 0.000000e+00    1         1  ON    14
      uuAs_15                 0.000000e+00    1         1  ON    15
      uuAs_16                 0.000000e+00    1         1  ON    16
      uuAs_17                 0.000000e+00    1         1  ON    17
      uuAs_18                 0.000000e+00    1         1  ON    18
      uuAs_19                 0.000000e+00    1         1  ON    19
      uuAs_20                 0.000000e+00    1         1  ON    20
      uuAs_21                 0.000000e+00    1         1  ON    21
      uuAs_22                 0.000000e+00    1         1  ON    22
      uuAs_23                 0.000000e+00    1         1  ON    23
      uuAs_24                 0.000000e+00    1         1  ON    24
      uuAs_25                 0.000000e+00    1         1  ON    25

     Ion: As   electron-electron: u - d
      Number of parameters for e-e: 3, for e-I: 3
      Cutoff radius: 10

Expected 26 parameters, but found 0 in PolynomialFunctor3D.
         Name                        Value Type Recompute Use Index
      ------- ---------------------------- ---- --------- --- -----
       udAs_0                 0.000000e+00    1         1  ON     0
       udAs_1                 0.000000e+00    1         1  ON     1
       udAs_2                 0.000000e+00    1         1  ON     2
       udAs_3                 0.000000e+00    1         1  ON     3
       udAs_4                 0.000000e+00    1         1  ON     4
       udAs_5                 0.000000e+00    1         1  ON     5
       udAs_6                 0.000000e+00    1         1  ON     6
       udAs_7                 0.000000e+00    1         1  ON     7
       udAs_8                 0.000000e+00    1         1  ON     8
       udAs_9                 0.000000e+00    1         1  ON     9
      udAs_10                 0.000000e+00    1         1  ON    10
      udAs_11                 0.000000e+00    1         1  ON    11
      udAs_12                 0.000000e+00    1         1  ON    12
      udAs_13                 0.000000e+00    1         1  ON    13
      udAs_14                 0.000000e+00    1         1  ON    14
      udAs_15                 0.000000e+00    1         1  ON    15
      udAs_16                 0.000000e+00    1         1  ON    16
      udAs_17                 0.000000e+00    1         1  ON    17
      udAs_18                 0.000000e+00    1         1  ON    18
      udAs_19                 0.000000e+00    1         1  ON    19
      udAs_20                 0.000000e+00    1         1  ON    20
      udAs_21                 0.000000e+00    1         1  ON    21
      udAs_22                 0.000000e+00    1         1  ON    22
      udAs_23                 0.000000e+00    1         1  ON    23
      udAs_24                 0.000000e+00    1         1  ON    24
      udAs_25                 0.000000e+00    1         1  ON    25

  QMCHamiltonian::addOperator Kinetic to H, physical Hamiltonian 
  QMCHamiltonian::addOperator ElecElec to H, physical Hamiltonian 
QMCHamiltonian::addOperatorType added type coulomb named ElecElec
  CoulombAA for ion0 is not created.  Number of particles == 1 and nonPeriodic

  ECPotential builder for pseudopotential 

  Adding pseudopotential for As
   Linear grid  ri=0 rf=10 npts = 10001
    ECPComponentBuilder::buildSemiLocalAndLocal 
    Assuming Hartree unit
   Number of angular momentum channels 4
   Maximum angular momentum channel 3
   Creating a Linear Grid Rmax=2.78
  Using global grid with delta = 0.001
   Making L=3 a local potential with a radial cutoff of 9.999
    Non-local pseudopotential parameters
    Maximum angular mementum = 2
    Number of non-local channels = 3
       l(0)=0
       l(1)=1
       l(2)=2
    Cutoff radius = 2.78
    Spherical grids and weights: 
                        1                 0                 0       0.08333333333
                       -1   1.224646799e-16                 0       0.08333333333
             0.4472135955       0.894427191                 0       0.08333333333
            -0.4472135955      0.7236067977      0.5257311121       0.08333333333
             0.4472135955      0.2763932023      0.8506508084       0.08333333333
            -0.4472135955     -0.2763932023      0.8506508084       0.08333333333
             0.4472135955     -0.7236067977      0.5257311121       0.08333333333
            -0.4472135955      -0.894427191   1.095357397e-16       0.08333333333
             0.4472135955     -0.7236067977     -0.5257311121       0.08333333333
            -0.4472135955     -0.2763932023     -0.8506508084       0.08333333333
             0.4472135955      0.2763932023     -0.8506508084       0.08333333333
            -0.4472135955      0.7236067977     -0.5257311121       0.08333333333
    Maximum cutoff radius 2.78
  QMCHamiltonian::addOperator LocalECP to H, physical Hamiltonian 

  Using NonLocalECP potential 
    Maximum grid on a sphere for NonLocalECPotential: 12
  QMCHamiltonian::addOperator NonLocalECP to H, physical Hamiltonian 
QMCHamiltonian::addOperatorType added type pseudo named PseudoPot

  QMCHamiltonian::add2WalkerProperty added
    4 to P::PropertyList 
    0 to P::Collectables 
    starting Index of the observables in P::PropertyList = 9
ParticleSetPool::randomize 
<init source="ion0" target="e">
</init>
  Initialization Execution time = 0.3709 secs
=========================================================
 Summary of QMC systems 
=========================================================
ParticleSetPool has: 

  ParticleSet 'e' contains 5 particles :  u(4) d(1)

    u -4.2985051824e-01 -2.9344689306e-01  9.0280748855e-01
    u  1.6289888844e+00  1.8774291588e+00 -8.2216972943e-01
    u -6.5241486916e-01 -3.3311976603e-02  2.7676271348e+00
    u  1.1221709819e+00  1.3318364331e+00  6.9866055290e-01
    d -2.3201690483e+00 -2.5197222327e-02  2.7383012413e-01

  Distance table for dissimilar particles (A-B):
    source: ion0  target: e
    Using structure-of-arrays (SoA) data layout
    Distance computations use open boundary conditions in 3D.

  Distance table for similar particles (A-A):
    source/target: e
    Using structure-of-arrays (SoA) data layout
    Distance computations use open boundary conditions in 3D.


  ParticleSet 'ion0' contains 1 particles :  As(1)

    As  0.0000000000e+00  0.0000000000e+00  0.0000000000e+00


  Hamiltonian h0
  Kinetic         Kinetic energy
  ElecElec        CoulombAB source=e

  LocalECP        LocalECPotential: ion0
  NonLocalECP     NonLocalECPotential: ion0


=========================================================
  Start VMC
  File Root As.log.s000 append = no 
=========================================================
  Adding 1 walkers to 0 existing sets
  Total number of walkers: 1.0240000000e+03
  Total weight: 1.0240000000e+03
  Resetting Properties of the walkers 1 x 13

<vmc function="put">
  qmc_counter=0  my_counter=0
  time step      = 1.5000000000e-01
  blocks         = 200
  steps          = 1
  substeps       = 5
  current        = 0
  target samples = 1.0240000000e+03
  walkers/mpi    = 1

  stepsbetweensamples = 200
<parameter name="blocks" condition="int">200</parameter>
<parameter name="blocks_between_recompute" condition="int">0</parameter>
<parameter name="check_properties" condition="int">100</parameter>
<parameter name="checkproperties" condition="int">100</parameter>
<parameter name="current" condition="int">0</parameter>
<parameter name="dmcwalkersperthread" condition="real">1.0000000000e+00</parameter>
<parameter name="maxcpusecs" condition="real">3.6000000000e+05</parameter>
<parameter name="record_configs" condition="int">0</parameter>
<parameter name="record_walkers" condition="int">200</parameter>
<parameter name="recordconfigs" condition="int">0</parameter>
<parameter name="recordwalkers" condition="int">200</parameter>
<parameter name="rewind" condition="int">0</parameter>
<parameter name="samples" condition="real">1.0240000000e+03</parameter>
<parameter name="samplesperthread" condition="real">1.0000000000e+00</parameter>
<parameter name="steps" condition="int">1</parameter>
<parameter name="stepsbetweensamples" condition="int">200</parameter>
<parameter name="store_configs" condition="int">0</parameter>
<parameter name="storeconfigs" condition="int">0</parameter>
<parameter name="sub_steps" condition="int">5</parameter>
<parameter name="substeps" condition="int">5</parameter>
<parameter name="tau" condition="au">1.5000000000e-01</parameter>
<parameter name="time_step" condition="au">1.5000000000e-01</parameter>
<parameter name="timestep" condition="au">1.5000000000e-01</parameter>
<parameter name="use_drift" condition="string">no</parameter>
<parameter name="usedrift" condition="string">no</parameter>
<parameter name="walkers" condition="int">1</parameter>
<parameter name="warmup_steps" condition="int">100</parameter>
<parameter name="warmupsteps" condition="int">100</parameter>
  DumpConfig==false Nothing (configurations, state) will be saved.
  Walker Samples are dumped every 200 steps.
</vmc>
  Set drift_modifier UNR parameter a = 1.0000000000e+00
  Initial partition of walkers 0 1 

  Using Particle by Particle moves
  Walker moves without drift
  Total Sample Size   =1024
  Walker distribution on root = 0 1 
  Using Locality Approximation
===== Memory Usage after the buffer registration =====
Available memory on node 0, free + buffers : 54097 MB
Memory footprint by rank 0 on node 0       : 571 MB
==================================================
  Anonymous Buffer size per walker : 2176 Bytes.
MEMORY increase 0 MB VMC::resetRun
====================================================
  SimpleFixedNodeBranch::finalize after a VMC block
    QMC counter        = 0
    time step          = 0.15
    reference energy   = -6.17656
    reference variance = 0.0596779
====================================================
  QMC Execution time = 2.0436e+00 secs
Loop execution max-interations = 20

=========================================================
  Start QMCFixedSampleLinearOptimize
  File Root As.log.s001 append = no 
=========================================================
  Skip QMCDriver::putQMCInfo 
  Resetting Properties of the walkers 1 x 13

=========================================================
  Start VMC
  File Root As.log.s001 append = no 
=========================================================
  Using the current 1 walkers.
  Total number of walkers: 1.0240e+03
  Total weight: 1.0240e+03
  Resetting Properties of the walkers 1 x 13

<vmc function="put">
  qmc_counter=0  my_counter=0
  time step      = 1.5000e-01
  blocks         = 500
  steps          = 1
  substeps       = 5
  current        = 0
  target samples = 5.1200e+05
  walkers/mpi    = 1

  stepsbetweensamples = 1
<parameter name="blocks" condition="int">500</parameter>
<parameter name="blocks_between_recompute" condition="int">0</parameter>
<parameter name="check_properties" condition="int">100</parameter>
<parameter name="checkproperties" condition="int">100</parameter>
<parameter name="current" condition="int">0</parameter>
<parameter name="dmcwalkersperthread" condition="real">5.0000e+02</parameter>
<parameter name="maxcpusecs" condition="real">3.6000e+05</parameter>
<parameter name="record_configs" condition="int">0</parameter>
<parameter name="record_walkers" condition="int">1</parameter>
<parameter name="recordconfigs" condition="int">0</parameter>
<parameter name="recordwalkers" condition="int">1</parameter>
<parameter name="rewind" condition="int">0</parameter>
<parameter name="samples" condition="real">5.1200e+05</parameter>
<parameter name="samplesperthread" condition="real">5.0000e+02</parameter>
<parameter name="steps" condition="int">1</parameter>
<parameter name="stepsbetweensamples" condition="int">1</parameter>
<parameter name="store_configs" condition="int">0</parameter>
<parameter name="storeconfigs" condition="int">0</parameter>
<parameter name="sub_steps" condition="int">5</parameter>
<parameter name="substeps" condition="int">5</parameter>
<parameter name="tau" condition="au">1.5000e-01</parameter>
<parameter name="time_step" condition="au">1.5000e-01</parameter>
<parameter name="timestep" condition="au">1.5000e-01</parameter>
<parameter name="use_drift" condition="string">no</parameter>
<parameter name="usedrift" condition="string">no</parameter>
<parameter name="walkers" condition="int">1</parameter>
<parameter name="warmup_steps" condition="int">0</parameter>
<parameter name="warmupsteps" condition="int">0</parameter>
  DumpConfig==false Nothing (configurations, state) will be saved.
  Walker Samples are dumped every 1 steps.
</vmc>
    Restarting, cummulative properties:
      energy     = -6.1766e+00
      variance   = 0.0000e+00
      r2accepted = 1.0000e-10
      r2proposed = 1.0000e-10
  Set drift_modifier UNR parameter a = 1.0000e+00
 Using QMCCostFunction::QMCCostFunction
  Set drift_modifier UNR parameter a = 1.0000e+00
  EstimatorManagerBase::add replace LocalEnergy estimator.
<optimization-report>
<vmc stage="main" blocks="500">
  Cannot make clones again. Use existing 1 clones
  Initial partition of walkers 0 1 

  Using Particle by Particle moves
  Walker moves without drift
  Total Sample Size   =512000
  Walker distribution on root = 0 1 
  Using Locality Approximation
===== Memory Usage after the buffer registration =====
Available memory on node 0, free + buffers : 54081 MB
Memory footprint by rank 0 on node 0       : 572 MB
==================================================
  Anonymous Buffer size per walker : 2176 Bytes.
MEMORY increase 0 MB VMC::resetRun
====================================================
  SimpleFixedNodeBranch::finalize after a VMC block
    QMC counter        = 1
    time step          = 0.15
    reference energy   = -6.15068
    reference variance = 0.0807591
====================================================
  Execution time = 3.6097e+00
</vmc>
<opt stage="setup">
  <log>
   Reading configurations from h5FileRoot As.log.s001
  QMCCostFunction is created with 1 threads.
  Using Nonlocal PP in Opt: NonLocalECP
   Number of samples loaded to each thread : 500 
  VMC Eavg = -6.1708e+00
  VMC Evar = 5.9428e-01
  Total weights = 5.1200e+05
  Execution time = 1.4026e+00
  </log>
</opt>
<opt stage="main" walkers="512000">
  <log>

*****************************************
Building overlap and Hamiltonian matrices
*****************************************

Among totally 82 optimized parameters, largest LM parameter change : 6.3896e-02 at parameter 24

******************************************************************************
Init Cost =  -5.8326e+00    New Cost =  -5.8386e+00  Delta Cost =  -6.0032e-03
******************************************************************************

The new set of parameters is valid. Updating the trial wave function!

*****************************************************************************
Applying the update for shift_i =   1.0000e-02     and shift_s =   2.5000e-01
*****************************************************************************
  Execution time = 6.4047e+00
  </log>
  <optVariables href="As.log.s001.opt.xml">
   uu_0                 5.895231e-01 1 1  ON 0
   uu_1                 3.740372e-01 1 1  ON 1
   uu_2                 2.421361e-01 1 1  ON 2
   uu_3                 1.543613e-01 1 1  ON 3
   uu_4                 8.627714e-02 1 1  ON 4
   uu_5                 2.924887e-02 1 1  ON 5
   uu_6                -2.419560e-02 1 1  ON 6
   uu_7                -5.910812e-02 1 1  ON 7
   uu_8                -7.631530e-02 1 1  ON 8
   uu_9                -7.762129e-02 1 1  ON 9
   ud_0                 8.155135e-01 1 1  ON 10
   ud_1                 4.755996e-01 1 1  ON 11
   ud_2                 2.347044e-01 1 1  ON 12
   ud_3                 6.577393e-02 1 1  ON 13
   ud_4                -3.168664e-02 1 1  ON 14
   ud_5                -1.009315e-01 1 1  ON 15
   ud_6                -1.595286e-01 1 1  ON 16
   ud_7                -2.017490e-01 1 1  ON 17
   ud_8                -2.103668e-01 1 1  ON 18
   ud_9                -2.008567e-01 1 1  ON 19
  eAs_0                -1.172321e+00 1 1  ON 20
  eAs_1                -5.683122e-01 1 1  ON 21
  eAs_2                -4.655647e-01 1 1  ON 22
  eAs_3                -1.408704e-01 1 1  ON 23
  eAs_4                 1.853990e-01 1 1  ON 24
  eAs_5                 3.092449e-01 1 1  ON 25
  eAs_6                 4.757328e-01 1 1  ON 26
  eAs_7                 5.578310e-01 1 1  ON 27
  eAs_8                 5.190278e-01 1 1  ON 28
  eAs_9                 2.787424e-01 1 1  ON 29
 uuAs_0                 6.060505e-05 1 1  ON 30
 uuAs_1                -1.372111e-04 1 1  ON 31
 uuAs_2                -5.743875e-05 1 1  ON 32
 uuAs_3                 1.957128e-05 1 1  ON 33
 uuAs_4                 1.878384e-05 1 1  ON 34
 uuAs_5                 1.741949e-05 1 1  ON 35
 uuAs_6                -2.729863e-04 1 1  ON 36
 uuAs_7                 4.133851e-05 1 1  ON 37
 uuAs_8                -2.057456e-06 1 1  ON 38
 uuAs_9                 1.002674e-04 1 1  ON 39
uuAs_10                 4.160708e-05 1 1  ON 40
uuAs_11                -3.259417e-05 1 1  ON 41
uuAs_12                 5.212220e-06 1 1  ON 42
uuAs_13                 4.956634e-05 1 1  ON 43
uuAs_14                 8.256129e-06 1 1  ON 44
uuAs_15                -1.098780e-06 1 1  ON 45
uuAs_16                -1.528166e-04 1 1  ON 46
uuAs_17                 5.360968e-05 1 1  ON 47
uuAs_18                 2.975280e-05 1 1  ON 48
uuAs_19                -6.819620e-06 1 1  ON 49
uuAs_20                -1.219949e-05 1 1  ON 50
uuAs_21                -7.965594e-06 1 1  ON 51
uuAs_22                 1.702564e-06 1 1  ON 52
uuAs_23                 1.056018e-05 1 1  ON 53
uuAs_24                 1.342929e-06 1 1  ON 54
uuAs_25                -3.750059e-07 1 1  ON 55
 udAs_0                -1.474206e-04 1 1  ON 56
 udAs_1                -3.994684e-05 1 1  ON 57
 udAs_2                 1.595066e-04 1 1  ON 58
 udAs_3                 1.844881e-04 1 1  ON 59
 udAs_4                -3.141485e-06 1 1  ON 60
 udAs_5                -5.459786e-06 1 1  ON 61
 udAs_6                 2.663060e-04 1 1  ON 62
 udAs_7                 7.792619e-05 1 1  ON 63
 udAs_8                 1.386903e-06 1 1  ON 64
 udAs_9                -9.750286e-05 1 1  ON 65
udAs_10                 1.036101e-04 1 1  ON 66
udAs_11                -1.323192e-04 1 1  ON 67
udAs_12                 8.380645e-06 1 1  ON 68
udAs_13                -2.253778e-04 1 1  ON 69
udAs_14                -1.726437e-05 1 1  ON 70
udAs_15                 7.873854e-07 1 1  ON 71
udAs_16                 3.381552e-04 1 1  ON 72
udAs_17                -3.258852e-04 1 1  ON 73
udAs_18                 1.417509e-04 1 1  ON 74
udAs_19                -9.760982e-06 1 1  ON 75
udAs_20                 1.419992e-05 1 1  ON 76
udAs_21                -1.095996e-05 1 1  ON 77
udAs_22                 9.348222e-07 1 1  ON 78
udAs_23                -3.025538e-06 1 1  ON 79
udAs_24                 1.627777e-06 1 1  ON 80
udAs_25                -1.630106e-07 1 1  ON 81
  </optVariables>
   Restore the number of walkers to 1, removing 0 walkers.
</opt>
</optimization-report>
  QMC Execution time = 6.417 secs
  Reusing QMCFixedSampleLinearOptimize
 Using QMCCostFunction::QMCCostFunction

=========================================================
  Start QMCFixedSampleLinearOptimize
  File Root As.log.s002 append = no 
=========================================================
  Skip QMCDriver::putQMCInfo 
  Resetting Properties of the walkers 1 x 13

=========================================================
  Start VMC
  File Root As.log.s002 append = no 
=========================================================
Using existing walkers 
  Resetting Properties of the walkers 1 x 13

<vmc function="put">
  qmc_counter=1  my_counter=1
  time step      = 1.5000e-01
  blocks         = 500
  steps          = 1
  substeps       = 5
  current        = 0
  target samples = 5.1200e+05
  walkers/mpi    = 1

  stepsbetweensamples = 1
<parameter name="blocks" condition="int">500</parameter>
<parameter name="blocks_between_recompute" condition="int">0</parameter>
<parameter name="check_properties" condition="int">100</parameter>
<parameter name="checkproperties" condition="int">100</parameter>
<parameter name="current" condition="int">0</parameter>
<parameter name="dmcwalkersperthread" condition="real">5.0000e+02</parameter>
<parameter name="maxcpusecs" condition="real">3.6000e+05</parameter>
<parameter name="record_configs" condition="int">0</parameter>
<parameter name="record_walkers" condition="int">1</parameter>
<parameter name="recordconfigs" condition="int">0</parameter>
<parameter name="recordwalkers" condition="int">1</parameter>
<parameter name="rewind" condition="int">0</parameter>
<parameter name="samples" condition="real">5.1200e+05</parameter>
<parameter name="samplesperthread" condition="real">5.0000e+02</parameter>
<parameter name="steps" condition="int">1</parameter>
<parameter name="stepsbetweensamples" condition="int">1</parameter>
<parameter name="store_configs" condition="int">0</parameter>
<parameter name="storeconfigs" condition="int">0</parameter>
<parameter name="sub_steps" condition="int">5</parameter>
<parameter name="substeps" condition="int">5</parameter>
<parameter name="tau" condition="au">1.5000e-01</parameter>
<parameter name="time_step" condition="au">1.5000e-01</parameter>
<parameter name="timestep" condition="au">1.5000e-01</parameter>
<parameter name="use_drift" condition="string">no</parameter>
<parameter name="usedrift" condition="string">no</parameter>
<parameter name="walkers" condition="int">1</parameter>
<parameter name="warmup_steps" condition="int">0</parameter>
<parameter name="warmupsteps" condition="int">0</parameter>
  DumpConfig==false Nothing (configurations, state) will be saved.
  Walker Samples are dumped every 1 steps.
</vmc>
  Set drift_modifier UNR parameter a = 1.0000e+00
  EstimatorManagerBase::add replace LocalEnergy estimator.
  Set drift_modifier UNR parameter a = 1.0000e+00
  EstimatorManagerBase::add replace LocalEnergy estimator.
<optimization-report>
<vmc stage="main" blocks="500">
  Cannot make clones again. Use existing 1 clones
  Initial partition of walkers 0 1 
  Using Particle by Particle moves
  Walker moves without drift
  Total Sample Size   =512000
  Walker distribution on root = 0 1 
  Using Locality Approximation
===== Memory Usage after the buffer registration =====
Available memory on node 0, free + buffers : 53382 MB
Memory footprint by rank 0 on node 0       : 586 MB
==================================================
====================================================
  SimpleFixedNodeBranch::finalize after a VMC block
    QMC counter        = 2
    time step          = 0.15
    reference energy   = -6.1599
    reference variance = 0.13521
====================================================
  Execution time = 3.6214e+00
</vmc>
<opt stage="setup">
  <log>
   Reading configurations from h5FileRoot As.log.s002
  QMCCostFunction is created with 1 threads.
  Using Nonlocal PP in Opt: NonLocalECP
   Number of samples loaded to each thread : 500 
  VMC Eavg = -6.1774e+00
  VMC Evar = 6.9739e-01
  Total weights = 5.1200e+05
  Execution time = 1.3843e+00
  </log>
</opt>
<opt stage="main" walkers="512000">
  <log>

*****************************************
Building overlap and Hamiltonian matrices
*****************************************

Among totally 82 optimized parameters, largest LM parameter change : 4.2815e-02 at parameter 10

******************************************************************************
Init Cost =  -5.8336e+00    New Cost =  -5.8326e+00  Delta Cost =   1.0053e-03
******************************************************************************

The new set of parameters is valid. Updating the trial wave function!

*****************************************************************************
Applying the update for shift_i =   1.0000e-02     and shift_s =   6.2500e-02
*****************************************************************************
  Execution time = 6.3463e+00
  </log>
  <optVariables href="As.log.s002.opt.xml">
   uu_0                 5.628755e-01 1 1  ON 0
   uu_1                 3.323251e-01 1 1  ON 1
   uu_2                 2.164259e-01 1 1  ON 2
   uu_3                 1.475958e-01 1 1  ON 3
   uu_4                 9.462159e-02 1 1  ON 4
   uu_5                 4.585352e-02 1 1  ON 5
   uu_6                -1.837151e-03 1 1  ON 6
   uu_7                -3.226642e-02 1 1  ON 7
   uu_8                -5.072716e-02 1 1  ON 8
   uu_9                -6.299210e-02 1 1  ON 9
   ud_0                 8.583289e-01 1 1  ON 10
   ud_1                 5.105191e-01 1 1  ON 11
   ud_2                 2.528125e-01 1 1  ON 12
   ud_3                 6.619693e-02 1 1  ON 13
   ud_4                -3.459782e-02 1 1  ON 14
   ud_5                -1.069727e-01 1 1  ON 15
   ud_6                -1.704425e-01 1 1  ON 16
   ud_7                -2.094340e-01 1 1  ON 17
   ud_8                -2.245285e-01 1 1  ON 18
   ud_9                -2.154947e-01 1 1  ON 19
  eAs_0                -1.192313e+00 1 1  ON 20
  eAs_1                -5.394381e-01 1 1  ON 21
  eAs_2                -4.816573e-01 1 1  ON 22
  eAs_3                -1.523877e-01 1 1  ON 23
  eAs_4                 2.110260e-01 1 1  ON 24
  eAs_5                 2.921336e-01 1 1  ON 25
  eAs_6                 4.648809e-01 1 1  ON 26
  eAs_7                 5.475971e-01 1 1  ON 27
  eAs_8                 5.276918e-01 1 1  ON 28
  eAs_9                 2.917524e-01 1 1  ON 29
 uuAs_0                 7.420386e-05 1 1  ON 30
 uuAs_1                -1.538433e-04 1 1  ON 31
 uuAs_2                -5.913780e-05 1 1  ON 32
 uuAs_3                 2.158017e-05 1 1  ON 33
 uuAs_4                 1.962064e-05 1 1  ON 34
 uuAs_5                 2.162986e-05 1 1  ON 35
 uuAs_6                -2.932839e-04 1 1  ON 36
 uuAs_7                 3.602417e-05 1 1  ON 37
 uuAs_8                 5.594413e-06 1 1  ON 38
 uuAs_9                 9.173266e-05 1 1  ON 39
uuAs_10                 4.616200e-05 1 1  ON 40
uuAs_11                -4.252576e-05 1 1  ON 41
uuAs_12                 4.129076e-06 1 1  ON 42
uuAs_13                 6.993882e-05 1 1  ON 43
uuAs_14                 1.062518e-05 1 1  ON 44
uuAs_15                -1.203333e-06 1 1  ON 45
uuAs_16                -1.407931e-04 1 1  ON 46
uuAs_17                 6.166166e-05 1 1  ON 47
uuAs_18                 3.929663e-05 1 1  ON 48
uuAs_19                -7.706847e-06 1 1  ON 49
uuAs_20                -2.724631e-05 1 1  ON 50
uuAs_21                -9.748555e-06 1 1  ON 51
uuAs_22                 2.010678e-06 1 1  ON 52
uuAs_23                 1.650312e-05 1 1  ON 53
uuAs_24                 1.516971e-06 1 1  ON 54
uuAs_25                -4.430952e-07 1 1  ON 55
 udAs_0                -1.940207e-04 1 1  ON 56
 udAs_1                -8.049824e-05 1 1  ON 57
 udAs_2                 1.710594e-04 1 1  ON 58
 udAs_3                 2.269885e-04 1 1  ON 59
 udAs_4                 1.880580e-06 1 1  ON 60
 udAs_5                -9.688545e-06 1 1  ON 61
 udAs_6                 2.436247e-04 1 1  ON 62
 udAs_7                 1.160339e-04 1 1  ON 63
 udAs_8                -2.491983e-05 1 1  ON 64
 udAs_9                -2.988002e-05 1 1  ON 65
udAs_10                 1.291871e-04 1 1  ON 66
udAs_11                -1.398835e-04 1 1  ON 67
udAs_12                 1.668890e-05 1 1  ON 68
udAs_13                -3.049593e-04 1 1  ON 69
udAs_14                -2.620515e-05 1 1  ON 70
udAs_15                 8.414327e-07 1 1  ON 71
udAs_16                 3.043337e-04 1 1  ON 72
udAs_17                -3.963414e-04 1 1  ON 73
udAs_18                 1.593419e-04 1 1  ON 74
udAs_19                -1.319392e-05 1 1  ON 75
udAs_20                 4.919709e-05 1 1  ON 76
udAs_21                -1.227205e-05 1 1  ON 77
udAs_22                 1.199730e-06 1 1  ON 78
udAs_23                -1.254231e-05 1 1  ON 79
udAs_24                 2.355742e-06 1 1  ON 80
udAs_25                -2.528637e-07 1 1  ON 81
  </optVariables>
   Restore the number of walkers to 1, removing 0 walkers.
</opt>
</optimization-report>
  QMC Execution time = 6.358 secs
  Reusing QMCFixedSampleLinearOptimize
 Using QMCCostFunction::QMCCostFunction

=========================================================
  Start QMCFixedSampleLinearOptimize
  File Root As.log.s003 append = no 
=========================================================
  Skip QMCDriver::putQMCInfo 
  Resetting Properties of the walkers 1 x 13

=========================================================
  Start VMC
  File Root As.log.s003 append = no 
=========================================================
Using existing walkers 
  Resetting Properties of the walkers 1 x 13

<vmc function="put">
  qmc_counter=2  my_counter=2
  time step      = 1.5000e-01
  blocks         = 500
  steps          = 1
  substeps       = 5
  current        = 0
  target samples = 5.1200e+05
  walkers/mpi    = 1

  stepsbetweensamples = 1
<parameter name="blocks" condition="int">500</parameter>
<parameter name="blocks_between_recompute" condition="int">0</parameter>
<parameter name="check_properties" condition="int">100</parameter>
<parameter name="checkproperties" condition="int">100</parameter>
<parameter name="current" condition="int">0</parameter>
<parameter name="dmcwalkersperthread" condition="real">5.0000e+02</parameter>
<parameter name="maxcpusecs" condition="real">3.6000e+05</parameter>
<parameter name="record_configs" condition="int">0</parameter>
<parameter name="record_walkers" condition="int">1</parameter>
<parameter name="recordconfigs" condition="int">0</parameter>
<parameter name="recordwalkers" condition="int">1</parameter>
<parameter name="rewind" condition="int">0</parameter>
<parameter name="samples" condition="real">5.1200e+05</parameter>
<parameter name="samplesperthread" condition="real">5.0000e+02</parameter>
<parameter name="steps" condition="int">1</parameter>
<parameter name="stepsbetweensamples" condition="int">1</parameter>
<parameter name="store_configs" condition="int">0</parameter>
<parameter name="storeconfigs" condition="int">0</parameter>
<parameter name="sub_steps" condition="int">5</parameter>
<parameter name="substeps" condition="int">5</parameter>
<parameter name="tau" condition="au">1.5000e-01</parameter>
<parameter name="time_step" condition="au">1.5000e-01</parameter>
<parameter name="timestep" condition="au">1.5000e-01</parameter>
<parameter name="use_drift" condition="string">no</parameter>
<parameter name="usedrift" condition="string">no</parameter>
<parameter name="walkers" condition="int">1</parameter>
<parameter name="warmup_steps" condition="int">0</parameter>
<parameter name="warmupsteps" condition="int">0</parameter>
  DumpConfig==false Nothing (configurations, state) will be saved.
  Walker Samples are dumped every 1 steps.
</vmc>
  Set drift_modifier UNR parameter a = 1.0000e+00
  EstimatorManagerBase::add replace LocalEnergy estimator.
  Set drift_modifier UNR parameter a = 1.0000e+00
  EstimatorManagerBase::add replace LocalEnergy estimator.
<optimization-report>
<vmc stage="main" blocks="500">
  Cannot make clones again. Use existing 1 clones
  Initial partition of walkers 0 1 
  Using Particle by Particle moves
  Walker moves without drift
  Total Sample Size   =512000
  Walker distribution on root = 0 1 
  Using Locality Approximation
===== Memory Usage after the buffer registration =====
Available memory on node 0, free + buffers : 53378 MB
Memory footprint by rank 0 on node 0       : 589 MB
==================================================
====================================================
  SimpleFixedNodeBranch::finalize after a VMC block
    QMC counter        = 3
    time step          = 0.15
    reference energy   = -6.13395
    reference variance = 0.27691
====================================================
  Execution time = 3.6108e+00
</vmc>
<opt stage="setup">
  <log>
   Reading configurations from h5FileRoot As.log.s003
  QMCCostFunction is created with 1 threads.
  Using Nonlocal PP in Opt: NonLocalECP
   Number of samples loaded to each thread : 500 
  VMC Eavg = -6.1760e+00
  VMC Evar = 7.8781e-01
  Total weights = 5.1200e+05
  Execution time = 1.3944e+00
  </log>
</opt>
<opt stage="main" walkers="512000">
  <log>

*****************************************
Building overlap and Hamiltonian matrices
*****************************************

Among totally 82 optimized parameters, largest LM parameter change : 3.1684e-02 at parameter 10

******************************************************************************
Init Cost =  -5.8278e+00    New Cost =  -5.8275e+00  Delta Cost =   3.2531e-04
******************************************************************************

The new set of parameters is valid. Updating the trial wave function!

*****************************************************************************
Applying the update for shift_i =   1.0000e-02     and shift_s =   1.5625e-02
*****************************************************************************
  Execution time = 6.3490e+00
  </log>
  <optVariables href="As.log.s003.opt.xml">
   uu_0                 5.352598e-01 1 1  ON 0
   uu_1                 3.132716e-01 1 1  ON 1
   uu_2                 2.118972e-01 1 1  ON 2
   uu_3                 1.538557e-01 1 1  ON 3
   uu_4                 1.049222e-01 1 1  ON 4
   uu_5                 5.546605e-02 1 1  ON 5
   uu_6                 5.959655e-03 1 1  ON 6
   uu_7                -2.853106e-02 1 1  ON 7
   uu_8                -4.625789e-02 1 1  ON 8
   uu_9                -5.542265e-02 1 1  ON 9
   ud_0                 8.900127e-01 1 1  ON 10
   ud_1                 5.338168e-01 1 1  ON 11
   ud_2                 2.654843e-01 1 1  ON 12
   ud_3                 7.135411e-02 1 1  ON 13
   ud_4                -3.122587e-02 1 1  ON 14
   ud_5                -1.060995e-01 1 1  ON 15
   ud_6                -1.757806e-01 1 1  ON 16
   ud_7                -2.245835e-01 1 1  ON 17
   ud_8                -2.370340e-01 1 1  ON 18
   ud_9                -2.233713e-01 1 1  ON 19
  eAs_0                -1.223454e+00 1 1  ON 20
  eAs_1                -5.264536e-01 1 1  ON 21
  eAs_2                -4.849334e-01 1 1  ON 22
  eAs_3                -1.500497e-01 1 1  ON 23
  eAs_4                 2.377969e-01 1 1  ON 24
  eAs_5                 2.817918e-01 1 1  ON 25
  eAs_6                 4.583302e-01 1 1  ON 26
  eAs_7                 5.311079e-01 1 1  ON 27
  eAs_8                 5.287376e-01 1 1  ON 28
  eAs_9                 3.034404e-01 1 1  ON 29
 uuAs_0                 8.643724e-05 1 1  ON 30
 uuAs_1                -1.940226e-04 1 1  ON 31
 uuAs_2                -8.160002e-05 1 1  ON 32
 uuAs_3                 2.487227e-05 1 1  ON 33
 uuAs_4                 2.414407e-05 1 1  ON 34
 uuAs_5                 2.615492e-05 1 1  ON 35
 uuAs_6                -3.780471e-04 1 1  ON 36
 uuAs_7                 5.755887e-05 1 1  ON 37
 uuAs_8                -1.200183e-06 1 1  ON 38
 uuAs_9                 1.338662e-04 1 1  ON 39
uuAs_10                 5.342780e-05 1 1  ON 40
uuAs_11                -4.632819e-05 1 1  ON 41
uuAs_12                 6.145620e-06 1 1  ON 42
uuAs_13                 7.467450e-05 1 1  ON 43
uuAs_14                 1.253143e-05 1 1  ON 44
uuAs_15                -1.549705e-06 1 1  ON 45
uuAs_16                -1.886362e-04 1 1  ON 46
uuAs_17                 7.470727e-05 1 1  ON 47
uuAs_18                 4.222650e-05 1 1  ON 48
uuAs_19                -8.948706e-06 1 1  ON 49
uuAs_20                -2.477315e-05 1 1  ON 50
uuAs_21                -1.120279e-05 1 1  ON 51
uuAs_22                 2.333628e-06 1 1  ON 52
uuAs_23                 1.708203e-05 1 1  ON 53
uuAs_24                 1.810401e-06 1 1  ON 54
uuAs_25                -5.153004e-07 1 1  ON 55
 udAs_0                -1.930273e-04 1 1  ON 56
 udAs_1                -1.153639e-04 1 1  ON 57
 udAs_2                 1.648811e-04 1 1  ON 58
 udAs_3                 2.474405e-04 1 1  ON 59
 udAs_4                 7.529311e-06 1 1  ON 60
 udAs_5                -7.803297e-06 1 1  ON 61
 udAs_6                 2.070087e-04 1 1  ON 62
 udAs_7                 1.198575e-04 1 1  ON 63
 udAs_8                -4.347650e-05 1 1  ON 64
 udAs_9                -1.091767e-05 1 1  ON 65
udAs_10                 1.484379e-04 1 1  ON 66
udAs_11                -1.467981e-04 1 1  ON 67
udAs_12                 2.286824e-05 1 1  ON 68
udAs_13                -3.272683e-04 1 1  ON 69
udAs_14                -3.123274e-05 1 1  ON 70
udAs_15                 7.624178e-07 1 1  ON 71
udAs_16                 3.116360e-04 1 1  ON 72
udAs_17                -4.344796e-04 1 1  ON 73
udAs_18                 1.786144e-04 1 1  ON 74
udAs_19                -1.683814e-05 1 1  ON 75
udAs_20                 5.186262e-05 1 1  ON 76
udAs_21                -1.418617e-05 1 1  ON 77
udAs_22                 1.609471e-06 1 1  ON 78
udAs_23                -1.257679e-05 1 1  ON 79
udAs_24                 2.779671e-06 1 1  ON 80
udAs_25                -3.308251e-07 1 1  ON 81
  </optVariables>
   Restore the number of walkers to 1, removing 0 walkers.
</opt>
</optimization-report>
  QMC Execution time = 6.36 secs
  Reusing QMCFixedSampleLinearOptimize
 Using QMCCostFunction::QMCCostFunction

=========================================================
  Start QMCFixedSampleLinearOptimize
  File Root As.log.s004 append = no 
=========================================================
  Skip QMCDriver::putQMCInfo 
  Resetting Properties of the walkers 1 x 13

=========================================================
  Start VMC
  File Root As.log.s004 append = no 
=========================================================
Using existing walkers 
  Resetting Properties of the walkers 1 x 13

<vmc function="put">
  qmc_counter=3  my_counter=3
  time step      = 1.5000e-01
  blocks         = 500
  steps          = 1
  substeps       = 5
  current        = 0
  target samples = 5.1200e+05
  walkers/mpi    = 1

  stepsbetweensamples = 1
<parameter name="blocks" condition="int">500</parameter>
<parameter name="blocks_between_recompute" condition="int">0</parameter>
<parameter name="check_properties" condition="int">100</parameter>
<parameter name="checkproperties" condition="int">100</parameter>
<parameter name="current" condition="int">0</parameter>
<parameter name="dmcwalkersperthread" condition="real">5.0000e+02</parameter>
<parameter name="maxcpusecs" condition="real">3.6000e+05</parameter>
<parameter name="record_configs" condition="int">0</parameter>
<parameter name="record_walkers" condition="int">1</parameter>
<parameter name="recordconfigs" condition="int">0</parameter>
<parameter name="recordwalkers" condition="int">1</parameter>
<parameter name="rewind" condition="int">0</parameter>
<parameter name="samples" condition="real">5.1200e+05</parameter>
<parameter name="samplesperthread" condition="real">5.0000e+02</parameter>
<parameter name="steps" condition="int">1</parameter>
<parameter name="stepsbetweensamples" condition="int">1</parameter>
<parameter name="store_configs" condition="int">0</parameter>
<parameter name="storeconfigs" condition="int">0</parameter>
<parameter name="sub_steps" condition="int">5</parameter>
<parameter name="substeps" condition="int">5</parameter>
<parameter name="tau" condition="au">1.5000e-01</parameter>
<parameter name="time_step" condition="au">1.5000e-01</parameter>
<parameter name="timestep" condition="au">1.5000e-01</parameter>
<parameter name="use_drift" condition="string">no</parameter>
<parameter name="usedrift" condition="string">no</parameter>
<parameter name="walkers" condition="int">1</parameter>
<parameter name="warmup_steps" condition="int">0</parameter>
<parameter name="warmupsteps" condition="int">0</parameter>
  DumpConfig==false Nothing (configurations, state) will be saved.
  Walker Samples are dumped every 1 steps.
</vmc>
  Set drift_modifier UNR parameter a = 1.0000e+00
  EstimatorManagerBase::add replace LocalEnergy estimator.
  Set drift_modifier UNR parameter a = 1.0000e+00
  EstimatorManagerBase::add replace LocalEnergy estimator.
<optimization-report>
<vmc stage="main" blocks="500">
  Cannot make clones again. Use existing 1 clones
  Initial partition of walkers 0 1 
  Using Particle by Particle moves
  Walker moves without drift
  Total Sample Size   =512000
  Walker distribution on root = 0 1 
  Using Locality Approximation
===== Memory Usage after the buffer registration =====
Available memory on node 0, free + buffers : 53369 MB
Memory footprint by rank 0 on node 0       : 592 MB
==================================================
====================================================
  SimpleFixedNodeBranch::finalize after a VMC block
    QMC counter        = 4
    time step          = 0.15
    reference energy   = -6.16369
    reference variance = 0.287733
====================================================
  Execution time = 3.6372e+00
</vmc>
<opt stage="setup">
  <log>
   Reading configurations from h5FileRoot As.log.s004
  QMCCostFunction is created with 1 threads.
  Using Nonlocal PP in Opt: NonLocalECP
   Number of samples loaded to each thread : 500 
  VMC Eavg = -6.1753e+00
  VMC Evar = 7.1386e-01
  Total weights = 5.1200e+05
  Execution time = 1.3925e+00
  </log>
</opt>
<opt stage="main" walkers="512000">
  <log>

*****************************************
Building overlap and Hamiltonian matrices
*****************************************

Among totally 82 optimized parameters, largest LM parameter change : 2.4248e-02 at parameter 0

******************************************************************************
Init Cost =  -5.8308e+00    New Cost =  -5.8313e+00  Delta Cost =  -5.3632e-04
******************************************************************************

The new set of parameters is valid. Updating the trial wave function!

*****************************************************************************
Applying the update for shift_i =   1.0000e-02     and shift_s =   3.9062e-03
*****************************************************************************
  Execution time = 6.3904e+00
  </log>
  <optVariables href="As.log.s004.opt.xml">
   uu_0                 5.110123e-01 1 1  ON 0
   uu_1                 2.967581e-01 1 1  ON 1
   uu_2                 2.024762e-01 1 1  ON 2
   uu_3                 1.515723e-01 1 1  ON 3
   uu_4                 1.058390e-01 1 1  ON 4
   uu_5                 5.941735e-02 1 1  ON 5
   uu_6                 1.135221e-02 1 1  ON 6
   uu_7                -2.022341e-02 1 1  ON 7
   uu_8                -3.981168e-02 1 1  ON 8
   uu_9                -4.817619e-02 1 1  ON 9
   ud_0                 9.123515e-01 1 1  ON 10
   ud_1                 5.493429e-01 1 1  ON 11
   ud_2                 2.751725e-01 1 1  ON 12
   ud_3                 7.609363e-02 1 1  ON 13
   ud_4                -3.091518e-02 1 1  ON 14
   ud_5                -1.057842e-01 1 1  ON 15
   ud_6                -1.777507e-01 1 1  ON 16
   ud_7                -2.259927e-01 1 1  ON 17
   ud_8                -2.421536e-01 1 1  ON 18
   ud_9                -2.308381e-01 1 1  ON 19
  eAs_0                -1.246200e+00 1 1  ON 20
  eAs_1                -5.240426e-01 1 1  ON 21
  eAs_2                -4.733855e-01 1 1  ON 22
  eAs_3                -1.458513e-01 1 1  ON 23
  eAs_4                 2.342368e-01 1 1  ON 24
  eAs_5                 2.758889e-01 1 1  ON 25
  eAs_6                 4.487530e-01 1 1  ON 26
  eAs_7                 5.313534e-01 1 1  ON 27
  eAs_8                 5.317634e-01 1 1  ON 28
  eAs_9                 3.140941e-01 1 1  ON 29
 uuAs_0                 7.885076e-05 1 1  ON 30
 uuAs_1                -2.265282e-04 1 1  ON 31
 uuAs_2                -7.755773e-05 1 1  ON 32
 uuAs_3                 3.888269e-05 1 1  ON 33
 uuAs_4                 2.363448e-05 1 1  ON 34
 uuAs_5                 2.940411e-05 1 1  ON 35
 uuAs_6                -4.305193e-04 1 1  ON 36
 uuAs_7                 1.171110e-04 1 1  ON 37
 uuAs_8                 1.319601e-05 1 1  ON 38
 uuAs_9                 1.681883e-04 1 1  ON 39
uuAs_10                 6.298551e-05 1 1  ON 40
uuAs_11                -8.174027e-05 1 1  ON 41
uuAs_12                 3.942246e-06 1 1  ON 42
uuAs_13                 5.348016e-05 1 1  ON 43
uuAs_14                 1.773187e-05 1 1  ON 44
uuAs_15                -1.794828e-06 1 1  ON 45
uuAs_16                -2.151396e-04 1 1  ON 46
uuAs_17                 6.077642e-05 1 1  ON 47
uuAs_18                 6.620048e-05 1 1  ON 48
uuAs_19                -1.010160e-05 1 1  ON 49
uuAs_20                -1.314816e-05 1 1  ON 50
uuAs_21                -1.522015e-05 1 1  ON 51
uuAs_22                 2.778674e-06 1 1  ON 52
uuAs_23                 1.437256e-05 1 1  ON 53
uuAs_24                 2.536057e-06 1 1  ON 54
uuAs_25                -6.213217e-07 1 1  ON 55
 udAs_0                -1.863280e-04 1 1  ON 56
 udAs_1                -1.695768e-04 1 1  ON 57
 udAs_2                 1.268041e-04 1 1  ON 58
 udAs_3                 2.610913e-04 1 1  ON 59
 udAs_4                 1.905743e-05 1 1  ON 60
 udAs_5                -7.125957e-06 1 1  ON 61
 udAs_6                 8.933184e-05 1 1  ON 62
 udAs_7                 1.349653e-04 1 1  ON 63
 udAs_8                -7.418714e-05 1 1  ON 64
 udAs_9                 7.779639e-05 1 1  ON 65
udAs_10                 1.657994e-04 1 1  ON 66
udAs_11                -1.376803e-04 1 1  ON 67
udAs_12                 3.159653e-05 1 1  ON 68
udAs_13                -3.519878e-04 1 1  ON 69
udAs_14                -3.577156e-05 1 1  ON 70
udAs_15                 4.418008e-07 1 1  ON 71
udAs_16                 2.102099e-04 1 1  ON 72
udAs_17                -4.413495e-04 1 1  ON 73
udAs_18                 1.832419e-04 1 1  ON 74
udAs_19                -2.083543e-05 1 1  ON 75
udAs_20                 7.598070e-05 1 1  ON 76
udAs_21                -1.571136e-05 1 1  ON 77
udAs_22                 2.118482e-06 1 1  ON 78
udAs_23                -1.834266e-05 1 1  ON 79
udAs_24                 3.459421e-06 1 1  ON 80
udAs_25                -4.467921e-07 1 1  ON 81
  </optVariables>
   Restore the number of walkers to 1, removing 0 walkers.
</opt>
</optimization-report>
  QMC Execution time = 6.402 secs
  Reusing QMCFixedSampleLinearOptimize
 Using QMCCostFunction::QMCCostFunction

=========================================================
  Start QMCFixedSampleLinearOptimize
  File Root As.log.s005 append = no 
=========================================================
  Skip QMCDriver::putQMCInfo 
  Resetting Properties of the walkers 1 x 13

=========================================================
  Start VMC
  File Root As.log.s005 append = no 
=========================================================
Using existing walkers 
  Resetting Properties of the walkers 1 x 13

<vmc function="put">
  qmc_counter=4  my_counter=4
  time step      = 1.5000e-01
  blocks         = 500
  steps          = 1
  substeps       = 5
  current        = 0
  target samples = 5.1200e+05
  walkers/mpi    = 1

  stepsbetweensamples = 1
<parameter name="blocks" condition="int">500</parameter>
<parameter name="blocks_between_recompute" condition="int">0</parameter>
<parameter name="check_properties" condition="int">100</parameter>
<parameter name="checkproperties" condition="int">100</parameter>
<parameter name="current" condition="int">0</parameter>
<parameter name="dmcwalkersperthread" condition="real">5.0000e+02</parameter>
<parameter name="maxcpusecs" condition="real">3.6000e+05</parameter>
<parameter name="record_configs" condition="int">0</parameter>
<parameter name="record_walkers" condition="int">1</parameter>
<parameter name="recordconfigs" condition="int">0</parameter>
<parameter name="recordwalkers" condition="int">1</parameter>
<parameter name="rewind" condition="int">0</parameter>
<parameter name="samples" condition="real">5.1200e+05</parameter>
<parameter name="samplesperthread" condition="real">5.0000e+02</parameter>
<parameter name="steps" condition="int">1</parameter>
<parameter name="stepsbetweensamples" condition="int">1</parameter>
<parameter name="store_configs" condition="int">0</parameter>
<parameter name="storeconfigs" condition="int">0</parameter>
<parameter name="sub_steps" condition="int">5</parameter>
<parameter name="substeps" condition="int">5</parameter>
<parameter name="tau" condition="au">1.5000e-01</parameter>
<parameter name="time_step" condition="au">1.5000e-01</parameter>
<parameter name="timestep" condition="au">1.5000e-01</parameter>
<parameter name="use_drift" condition="string">no</parameter>
<parameter name="usedrift" condition="string">no</parameter>
<parameter name="walkers" condition="int">1</parameter>
<parameter name="warmup_steps" condition="int">0</parameter>
<parameter name="warmupsteps" condition="int">0</parameter>
  DumpConfig==false Nothing (configurations, state) will be saved.
  Walker Samples are dumped every 1 steps.
</vmc>
  Set drift_modifier UNR parameter a = 1.0000e+00
  EstimatorManagerBase::add replace LocalEnergy estimator.
  Set drift_modifier UNR parameter a = 1.0000e+00
  EstimatorManagerBase::add replace LocalEnergy estimator.
<optimization-report>
<vmc stage="main" blocks="500">
  Cannot make clones again. Use existing 1 clones
  Initial partition of walkers 0 1 
  Using Particle by Particle moves
  Walker moves without drift
  Total Sample Size   =512000
  Walker distribution on root = 0 1 
  Using Locality Approximation
===== Memory Usage after the buffer registration =====
Available memory on node 0, free + buffers : 53365 MB
Memory footprint by rank 0 on node 0       : 596 MB
==================================================
====================================================
  SimpleFixedNodeBranch::finalize after a VMC block
    QMC counter        = 5
    time step          = 0.15
    reference energy   = -6.11861
    reference variance = 0.32835
====================================================
  Execution time = 3.6242e+00
</vmc>
<opt stage="setup">
  <log>
   Reading configurations from h5FileRoot As.log.s005
  QMCCostFunction is created with 1 threads.
  Using Nonlocal PP in Opt: NonLocalECP
   Number of samples loaded to each thread : 500 
  VMC Eavg = -6.1748e+00
  VMC Evar = 7.3574e-01
  Total weights = 5.1200e+05
  Execution time = 1.3937e+00
  </log>
</opt>
<opt stage="main" walkers="512000">
  <log>

*****************************************
Building overlap and Hamiltonian matrices
*****************************************

Among totally 82 optimized parameters, largest LM parameter change : 1.8311e-02 at parameter 0

******************************************************************************
Init Cost =  -5.8293e+00    New Cost =  -5.8287e+00  Delta Cost =   5.6491e-04
******************************************************************************

The new set of parameters is valid. Updating the trial wave function!

*****************************************************************************
Applying the update for shift_i =   1.0000e-02     and shift_s =   3.9062e-03
*****************************************************************************
  Execution time = 6.3507e+00
  </log>
  <optVariables href="As.log.s005.opt.xml">
   uu_0                 4.927015e-01 1 1  ON 0
   uu_1                 2.842727e-01 1 1  ON 1
   uu_2                 1.939790e-01 1 1  ON 2
   uu_3                 1.474057e-01 1 1  ON 3
   uu_4                 1.067460e-01 1 1  ON 4
   uu_5                 6.292286e-02 1 1  ON 5
   uu_6                 1.593643e-02 1 1  ON 6
   uu_7                -1.349009e-02 1 1  ON 7
   uu_8                -3.081077e-02 1 1  ON 8
   uu_9                -3.931836e-02 1 1  ON 9
   ud_0                 9.271344e-01 1 1  ON 10
   ud_1                 5.621208e-01 1 1  ON 11
   ud_2                 2.833611e-01 1 1  ON 12
   ud_3                 7.915398e-02 1 1  ON 13
   ud_4                -2.787221e-02 1 1  ON 14
   ud_5                -1.051600e-01 1 1  ON 15
   ud_6                -1.772150e-01 1 1  ON 16
   ud_7                -2.244898e-01 1 1  ON 17
   ud_8                -2.431567e-01 1 1  ON 18
   ud_9                -2.361719e-01 1 1  ON 19
  eAs_0                -1.262541e+00 1 1  ON 20
  eAs_1                -5.239068e-01 1 1  ON 21
  eAs_2                -4.758581e-01 1 1  ON 22
  eAs_3                -1.421050e-01 1 1  ON 23
  eAs_4                 2.390635e-01 1 1  ON 24
  eAs_5                 2.716920e-01 1 1  ON 25
  eAs_6                 4.471746e-01 1 1  ON 26
  eAs_7                 5.298336e-01 1 1  ON 27
  eAs_8                 5.313507e-01 1 1  ON 28
  eAs_9                 3.222155e-01 1 1  ON 29
 uuAs_0                 9.050703e-05 1 1  ON 30
 uuAs_1                -2.038000e-04 1 1  ON 31
 uuAs_2                -9.074672e-05 1 1  ON 32
 uuAs_3                 2.415441e-05 1 1  ON 33
 uuAs_4                 2.410106e-05 1 1  ON 34
 uuAs_5                 2.825713e-05 1 1  ON 35
 uuAs_6                -4.100221e-04 1 1  ON 36
 uuAs_7                 7.708094e-05 1 1  ON 37
 uuAs_8                 1.718246e-06 1 1  ON 38
 uuAs_9                 1.519028e-04 1 1  ON 39
uuAs_10                 5.213387e-05 1 1  ON 40
uuAs_11                -5.298889e-05 1 1  ON 41
uuAs_12                 4.743093e-06 1 1  ON 42
uuAs_13                 7.360029e-05 1 1  ON 43
uuAs_14                 1.562668e-05 1 1  ON 44
uuAs_15                -1.702430e-06 1 1  ON 45
uuAs_16                -2.136740e-04 1 1  ON 46
uuAs_17                 8.129298e-05 1 1  ON 47
uuAs_18                 4.770699e-05 1 1  ON 48
uuAs_19                -8.976142e-06 1 1  ON 49
uuAs_20                -2.011615e-05 1 1  ON 50
uuAs_21                -1.326063e-05 1 1  ON 51
uuAs_22                 2.592481e-06 1 1  ON 52
uuAs_23                 1.629188e-05 1 1  ON 53
uuAs_24                 2.285774e-06 1 1  ON 54
uuAs_25                -5.996407e-07 1 1  ON 55
 udAs_0                -2.285212e-04 1 1  ON 56
 udAs_1                -1.281269e-04 1 1  ON 57
 udAs_2                 1.802458e-04 1 1  ON 58
 udAs_3                 2.628260e-04 1 1  ON 59
 udAs_4                 8.332898e-06 1 1  ON 60
 udAs_5                -1.150412e-05 1 1  ON 61
 udAs_6                 2.141906e-04 1 1  ON 62
 udAs_7                 1.140976e-04 1 1  ON 63
 udAs_8                -5.174225e-05 1 1  ON 64
 udAs_9                 3.412703e-05 1 1  ON 65
udAs_10                 1.573163e-04 1 1  ON 66
udAs_11                -1.402124e-04 1 1  ON 67
udAs_12                 2.478997e-05 1 1  ON 68
udAs_13                -3.625583e-04 1 1  ON 69
udAs_14                -3.632293e-05 1 1  ON 70
udAs_15                 1.106644e-06 1 1  ON 71
udAs_16                 2.651866e-04 1 1  ON 72
udAs_17                -4.605153e-04 1 1  ON 73
udAs_18                 1.804257e-04 1 1  ON 74
udAs_19                -1.694065e-05 1 1  ON 75
udAs_20                 7.360093e-05 1 1  ON 76
udAs_21                -1.405634e-05 1 1  ON 77
udAs_22                 1.446838e-06 1 1  ON 78
udAs_23                -1.851155e-05 1 1  ON 79
udAs_24                 3.047463e-06 1 1  ON 80
udAs_25                -3.149445e-07 1 1  ON 81
  </optVariables>
   Restore the number of walkers to 1, removing 0 walkers.
</opt>
</optimization-report>
  QMC Execution time = 6.363 secs
  Reusing QMCFixedSampleLinearOptimize
 Using QMCCostFunction::QMCCostFunction

=========================================================
  Start QMCFixedSampleLinearOptimize
  File Root As.log.s006 append = no 
=========================================================
  Skip QMCDriver::putQMCInfo 
  Resetting Properties of the walkers 1 x 13

=========================================================
  Start VMC
  File Root As.log.s006 append = no 
=========================================================
Using existing walkers 
  Resetting Properties of the walkers 1 x 13

<vmc function="put">
  qmc_counter=5  my_counter=5
  time step      = 1.5000e-01
  blocks         = 500
  steps          = 1
  substeps       = 5
  current        = 0
  target samples = 5.1200e+05
  walkers/mpi    = 1

  stepsbetweensamples = 1
<parameter name="blocks" condition="int">500</parameter>
<parameter name="blocks_between_recompute" condition="int">0</parameter>
<parameter name="check_properties" condition="int">100</parameter>
<parameter name="checkproperties" condition="int">100</parameter>
<parameter name="current" condition="int">0</parameter>
<parameter name="dmcwalkersperthread" condition="real">5.0000e+02</parameter>
<parameter name="maxcpusecs" condition="real">3.6000e+05</parameter>
<parameter name="record_configs" condition="int">0</parameter>
<parameter name="record_walkers" condition="int">1</parameter>
<parameter name="recordconfigs" condition="int">0</parameter>
<parameter name="recordwalkers" condition="int">1</parameter>
<parameter name="rewind" condition="int">0</parameter>
<parameter name="samples" condition="real">5.1200e+05</parameter>
<parameter name="samplesperthread" condition="real">5.0000e+02</parameter>
<parameter name="steps" condition="int">1</parameter>
<parameter name="stepsbetweensamples" condition="int">1</parameter>
<parameter name="store_configs" condition="int">0</parameter>
<parameter name="storeconfigs" condition="int">0</parameter>
<parameter name="sub_steps" condition="int">5</parameter>
<parameter name="substeps" condition="int">5</parameter>
<parameter name="tau" condition="au">1.5000e-01</parameter>
<parameter name="time_step" condition="au">1.5000e-01</parameter>
<parameter name="timestep" condition="au">1.5000e-01</parameter>
<parameter name="use_drift" condition="string">no</parameter>
<parameter name="usedrift" condition="string">no</parameter>
<parameter name="walkers" condition="int">1</parameter>
<parameter name="warmup_steps" condition="int">0</parameter>
<parameter name="warmupsteps" condition="int">0</parameter>
  DumpConfig==false Nothing (configurations, state) will be saved.
  Walker Samples are dumped every 1 steps.
</vmc>
  Set drift_modifier UNR parameter a = 1.0000e+00
  EstimatorManagerBase::add replace LocalEnergy estimator.
  Set drift_modifier UNR parameter a = 1.0000e+00
  EstimatorManagerBase::add replace LocalEnergy estimator.
<optimization-report>
<vmc stage="main" blocks="500">
  Cannot make clones again. Use existing 1 clones
  Initial partition of walkers 0 1 
  Using Particle by Particle moves
  Walker moves without drift
  Total Sample Size   =512000
  Walker distribution on root = 0 1 
  Using Locality Approximation
===== Memory Usage after the buffer registration =====
Available memory on node 0, free + buffers : 53362 MB
Memory footprint by rank 0 on node 0       : 599 MB
==================================================
====================================================
  SimpleFixedNodeBranch::finalize after a VMC block
    QMC counter        = 6
    time step          = 0.15
    reference energy   = -6.14033
    reference variance = 0.355247
====================================================
  Execution time = 3.6452e+00
</vmc>
<opt stage="setup">
  <log>
   Reading configurations from h5FileRoot As.log.s006
  QMCCostFunction is created with 1 threads.
  Using Nonlocal PP in Opt: NonLocalECP
   Number of samples loaded to each thread : 500 
  VMC Eavg = -6.1823e+00
  VMC Evar = 7.0969e-01
  Total weights = 5.1200e+05
  Execution time = 1.3770e+00
  </log>
</opt>
<opt stage="main" walkers="512000">
  <log>

*****************************************
Building overlap and Hamiltonian matrices
*****************************************

Among totally 82 optimized parameters, largest LM parameter change : 2.0288e-02 at parameter 20

******************************************************************************
Init Cost =  -5.8377e+00    New Cost =  -5.8365e+00  Delta Cost =   1.1625e-03
******************************************************************************

The new set of parameters is valid. Updating the trial wave function!

*****************************************************************************
Applying the update for shift_i =   1.0000e-02     and shift_s =   3.9062e-03
*****************************************************************************
  Execution time = 6.4278e+00
  </log>
  <optVariables href="As.log.s006.opt.xml">
   uu_0                 4.742641e-01 1 1  ON 0
   uu_1                 2.741394e-01 1 1  ON 1
   uu_2                 1.911835e-01 1 1  ON 2
   uu_3                 1.516184e-01 1 1  ON 3
   uu_4                 1.136060e-01 1 1  ON 4
   uu_5                 7.245784e-02 1 1  ON 5
   uu_6                 2.385841e-02 1 1  ON 6
   uu_7                -9.169313e-03 1 1  ON 7
   uu_8                -3.034240e-02 1 1  ON 8
   uu_9                -3.366198e-02 1 1  ON 9
   ud_0                 9.381251e-01 1 1  ON 10
   ud_1                 5.706554e-01 1 1  ON 11
   ud_2                 2.868703e-01 1 1  ON 12
   ud_3                 8.214046e-02 1 1  ON 13
   ud_4                -2.678567e-02 1 1  ON 14
   ud_5                -1.013714e-01 1 1  ON 15
   ud_6                -1.716943e-01 1 1  ON 16
   ud_7                -2.211793e-01 1 1  ON 17
   ud_8                -2.377164e-01 1 1  ON 18
   ud_9                -2.390732e-01 1 1  ON 19
  eAs_0                -1.282829e+00 1 1  ON 20
  eAs_1                -5.244545e-01 1 1  ON 21
  eAs_2                -4.638762e-01 1 1  ON 22
  eAs_3                -1.406553e-01 1 1  ON 23
  eAs_4                 2.394830e-01 1 1  ON 24
  eAs_5                 2.654570e-01 1 1  ON 25
  eAs_6                 4.415733e-01 1 1  ON 26
  eAs_7                 5.282565e-01 1 1  ON 27
  eAs_8                 5.297185e-01 1 1  ON 28
  eAs_9                 3.324435e-01 1 1  ON 29
 uuAs_0                 8.669825e-05 1 1  ON 30
 uuAs_1                -2.041847e-04 1 1  ON 31
 uuAs_2                -6.884628e-05 1 1  ON 32
 uuAs_3                 3.325185e-05 1 1  ON 33
 uuAs_4                 2.084895e-05 1 1  ON 34
 uuAs_5                 3.040606e-05 1 1  ON 35
 uuAs_6                -3.893664e-04 1 1  ON 36
 uuAs_7                 9.997517e-05 1 1  ON 37
 uuAs_8                 2.458834e-05 1 1  ON 38
 uuAs_9                 1.273972e-04 1 1  ON 39
uuAs_10                 5.884827e-05 1 1  ON 40
uuAs_11                -8.712980e-05 1 1  ON 41
uuAs_12                 2.830513e-07 1 1  ON 42
uuAs_13                 6.961140e-05 1 1  ON 43
uuAs_14                 2.048685e-05 1 1  ON 44
uuAs_15                -1.740550e-06 1 1  ON 45
uuAs_16                -1.712891e-04 1 1  ON 46
uuAs_17                 6.333276e-05 1 1  ON 47
uuAs_18                 7.086312e-05 1 1  ON 48
uuAs_19                -8.909600e-06 1 1  ON 49
uuAs_20                -2.650989e-05 1 1  ON 50
uuAs_21                -1.628152e-05 1 1  ON 51
uuAs_22                 2.799115e-06 1 1  ON 52
uuAs_23                 1.806587e-05 1 1  ON 53
uuAs_24                 2.604840e-06 1 1  ON 54
uuAs_25                -6.407656e-07 1 1  ON 55
 udAs_0                -2.256332e-04 1 1  ON 56
 udAs_1                -5.389646e-05 1 1  ON 57
 udAs_2                 2.279943e-04 1 1  ON 58
 udAs_3                 2.380590e-04 1 1  ON 59
 udAs_4                -9.437145e-06 1 1  ON 60
 udAs_5                -1.378678e-05 1 1  ON 61
 udAs_6                 3.548096e-04 1 1  ON 62
 udAs_7                 1.181908e-04 1 1  ON 63
 udAs_8                 7.047856e-06 1 1  ON 64
 udAs_9                -8.432671e-05 1 1  ON 65
udAs_10                 1.314237e-04 1 1  ON 66
udAs_11                -1.781069e-04 1 1  ON 67
udAs_12                 8.814880e-06 1 1  ON 68
udAs_13                -3.205583e-04 1 1  ON 69
udAs_14                -2.300793e-05 1 1  ON 70
udAs_15                 1.232904e-06 1 1  ON 71
udAs_16                 3.993316e-04 1 1  ON 72
udAs_17                -4.468416e-04 1 1  ON 73
udAs_18                 1.973003e-04 1 1  ON 74
udAs_19                -1.270869e-05 1 1  ON 75
udAs_20                 3.644793e-05 1 1  ON 76
udAs_21                -1.678955e-05 1 1  ON 77
udAs_22                 1.397050e-06 1 1  ON 78
udAs_23                -9.060747e-06 1 1  ON 79
udAs_24                 2.936061e-06 1 1  ON 80
udAs_25                -3.098442e-07 1 1  ON 81
  </optVariables>
   Restore the number of walkers to 1, removing 0 walkers.
</opt>
</optimization-report>
  QMC Execution time = 6.44 secs
  Reusing QMCFixedSampleLinearOptimize
 Using QMCCostFunction::QMCCostFunction

=========================================================
  Start QMCFixedSampleLinearOptimize
  File Root As.log.s007 append = no 
=========================================================
  Skip QMCDriver::putQMCInfo 
  Resetting Properties of the walkers 1 x 13

=========================================================
  Start VMC
  File Root As.log.s007 append = no 
=========================================================
Using existing walkers 
  Resetting Properties of the walkers 1 x 13

<vmc function="put">
  qmc_counter=6  my_counter=6
  time step      = 1.5000e-01
  blocks         = 500
  steps          = 1
  substeps       = 5
  current        = 0
  target samples = 5.1200e+05
  walkers/mpi    = 1

  stepsbetweensamples = 1
<parameter name="blocks" condition="int">500</parameter>
<parameter name="blocks_between_recompute" condition="int">0</parameter>
<parameter name="check_properties" condition="int">100</parameter>
<parameter name="checkproperties" condition="int">100</parameter>
<parameter name="current" condition="int">0</parameter>
<parameter name="dmcwalkersperthread" condition="real">5.0000e+02</parameter>
<parameter name="maxcpusecs" condition="real">3.6000e+05</parameter>
<parameter name="record_configs" condition="int">0</parameter>
<parameter name="record_walkers" condition="int">1</parameter>
<parameter name="recordconfigs" condition="int">0</parameter>
<parameter name="recordwalkers" condition="int">1</parameter>
<parameter name="rewind" condition="int">0</parameter>
<parameter name="samples" condition="real">5.1200e+05</parameter>
<parameter name="samplesperthread" condition="real">5.0000e+02</parameter>
<parameter name="steps" condition="int">1</parameter>
<parameter name="stepsbetweensamples" condition="int">1</parameter>
<parameter name="store_configs" condition="int">0</parameter>
<parameter name="storeconfigs" condition="int">0</parameter>
<parameter name="sub_steps" condition="int">5</parameter>
<parameter name="substeps" condition="int">5</parameter>
<parameter name="tau" condition="au">1.5000e-01</parameter>
<parameter name="time_step" condition="au">1.5000e-01</parameter>
<parameter name="timestep" condition="au">1.5000e-01</parameter>
<parameter name="use_drift" condition="string">no</parameter>
<parameter name="usedrift" condition="string">no</parameter>
<parameter name="walkers" condition="int">1</parameter>
<parameter name="warmup_steps" condition="int">0</parameter>
<parameter name="warmupsteps" condition="int">0</parameter>
  DumpConfig==false Nothing (configurations, state) will be saved.
  Walker Samples are dumped every 1 steps.
</vmc>
  Set drift_modifier UNR parameter a = 1.0000e+00
  EstimatorManagerBase::add replace LocalEnergy estimator.
  Set drift_modifier UNR parameter a = 1.0000e+00
  EstimatorManagerBase::add replace LocalEnergy estimator.
<optimization-report>
<vmc stage="main" blocks="500">
  Cannot make clones again. Use existing 1 clones
  Initial partition of walkers 0 1 
  Using Particle by Particle moves
  Walker moves without drift
  Total Sample Size   =512000
  Walker distribution on root = 0 1 
  Using Locality Approximation
===== Memory Usage after the buffer registration =====
Available memory on node 0, free + buffers : 53358 MB
Memory footprint by rank 0 on node 0       : 602 MB
==================================================
====================================================
  SimpleFixedNodeBranch::finalize after a VMC block
    QMC counter        = 7
    time step          = 0.15
    reference energy   = -6.13077
    reference variance = 0.403468
====================================================
  Execution time = 3.6720e+00
</vmc>
<opt stage="setup">
  <log>
   Reading configurations from h5FileRoot As.log.s007
  QMCCostFunction is created with 1 threads.
  Using Nonlocal PP in Opt: NonLocalECP
   Number of samples loaded to each thread : 500 
  VMC Eavg = -6.1881e+00
  VMC Evar = 7.3324e-01
  Total weights = 5.1200e+05
  Execution time = 9.7776e-01
  </log>
</opt>
<opt stage="main" walkers="512000">
  <log>

*****************************************
Building overlap and Hamiltonian matrices
*****************************************

Among totally 82 optimized parameters, largest LM parameter change : 2.1305e-02 at parameter 20

******************************************************************************
Init Cost =  -5.8420e+00    New Cost =  -5.8401e+00  Delta Cost =   1.8776e-03
******************************************************************************

The new set of parameters is valid. Updating the trial wave function!

*****************************************************************************
Applying the update for shift_i =   1.0000e-02     and shift_s =   3.9062e-03
*****************************************************************************
  Execution time = 5.6411e+00
  </log>
  <optVariables href="As.log.s007.opt.xml">
   uu_0                 4.604676e-01 1 1  ON 0
   uu_1                 2.669388e-01 1 1  ON 1
   uu_2                 1.899198e-01 1 1  ON 2
   uu_3                 1.533681e-01 1 1  ON 3
   uu_4                 1.190471e-01 1 1  ON 4
   uu_5                 7.651543e-02 1 1  ON 5
   uu_6                 2.638261e-02 1 1  ON 6
   uu_7                -6.367564e-03 1 1  ON 7
   uu_8                -2.467353e-02 1 1  ON 8
   uu_9                -2.960946e-02 1 1  ON 9
   ud_0                 9.470756e-01 1 1  ON 10
   ud_1                 5.800897e-01 1 1  ON 11
   ud_2                 2.916748e-01 1 1  ON 12
   ud_3                 8.319856e-02 1 1  ON 13
   ud_4                -2.758734e-02 1 1  ON 14
   ud_5                -1.027021e-01 1 1  ON 15
   ud_6                -1.699438e-01 1 1  ON 16
   ud_7                -2.152881e-01 1 1  ON 17
   ud_8                -2.318702e-01 1 1  ON 18
   ud_9                -2.378804e-01 1 1  ON 19
  eAs_0                -1.304135e+00 1 1  ON 20
  eAs_1                -5.144055e-01 1 1  ON 21
  eAs_2                -4.690135e-01 1 1  ON 22
  eAs_3                -1.359157e-01 1 1  ON 23
  eAs_4                 2.395828e-01 1 1  ON 24
  eAs_5                 2.548344e-01 1 1  ON 25
  eAs_6                 4.401834e-01 1 1  ON 26
  eAs_7                 5.255541e-01 1 1  ON 27
  eAs_8                 5.365341e-01 1 1  ON 28
  eAs_9                 3.430525e-01 1 1  ON 29
 uuAs_0                 9.789823e-05 1 1  ON 30
 uuAs_1                -1.962928e-04 1 1  ON 31
 uuAs_2                -8.951341e-05 1 1  ON 32
 uuAs_3                 1.051971e-05 1 1  ON 33
 uuAs_4                 2.069267e-05 1 1  ON 34
 uuAs_5                 3.007129e-05 1 1  ON 35
 uuAs_6                -4.050212e-04 1 1  ON 36
 uuAs_7                 6.742709e-05 1 1  ON 37
 uuAs_8                 1.574307e-05 1 1  ON 38
 uuAs_9                 1.396269e-04 1 1  ON 39
uuAs_10                 4.214991e-05 1 1  ON 40
uuAs_11                -5.157305e-05 1 1  ON 41
uuAs_12                -2.620271e-07 1 1  ON 42
uuAs_13                 9.994944e-05 1 1  ON 43
uuAs_14                 2.024613e-05 1 1  ON 44
uuAs_15                -1.673895e-06 1 1  ON 45
uuAs_16                -2.125362e-04 1 1  ON 46
uuAs_17                 1.090649e-04 1 1  ON 47
uuAs_18                 4.089314e-05 1 1  ON 48
uuAs_19                -6.527177e-06 1 1  ON 49
uuAs_20                -3.142708e-05 1 1  ON 50
uuAs_21                -1.321674e-05 1 1  ON 51
uuAs_22                 2.428088e-06 1 1  ON 52
uuAs_23                 2.005965e-05 1 1  ON 53
uuAs_24                 2.100067e-06 1 1  ON 54
uuAs_25                -5.694790e-07 1 1  ON 55
 udAs_0                -2.232096e-04 1 1  ON 56
 udAs_1                -1.031744e-04 1 1  ON 57
 udAs_2                 1.929256e-04 1 1  ON 58
[...]
   uu_2                 1.681489e-01 1 1  ON 2
   uu_3                 1.445048e-01 1 1  ON 3
   uu_4                 1.169533e-01 1 1  ON 4
   uu_5                 7.565460e-02 1 1  ON 5
   uu_6                 2.430288e-02 1 1  ON 6
   uu_7                -8.506736e-03 1 1  ON 7
   uu_8                -2.313238e-02 1 1  ON 8
   uu_9                -3.366227e-02 1 1  ON 9
   ud_0                 1.010720e+00 1 1  ON 10
   ud_1                 6.393288e-01 1 1  ON 11
   ud_2                 3.443690e-01 1 1  ON 12
   ud_3                 1.293310e-01 1 1  ON 13
   ud_4                 1.942976e-02 1 1  ON 14
   ud_5                -5.423499e-02 1 1  ON 15
   ud_6                -1.225237e-01 1 1  ON 16
   ud_7                -1.684327e-01 1 1  ON 17
   ud_8                -1.920157e-01 1 1  ON 18
   ud_9                -2.008719e-01 1 1  ON 19
  eAs_0                -1.447681e+00 1 1  ON 20
  eAs_1                -5.143545e-01 1 1  ON 21
  eAs_2                -4.570261e-01 1 1  ON 22
  eAs_3                -1.494817e-01 1 1  ON 23
  eAs_4                 2.299430e-01 1 1  ON 24
  eAs_5                 2.373118e-01 1 1  ON 25
  eAs_6                 4.210737e-01 1 1  ON 26
  eAs_7                 5.049808e-01 1 1  ON 27
  eAs_8                 5.155197e-01 1 1  ON 28
  eAs_9                 4.133892e-01 1 1  ON 29
 uuAs_0                 1.223866e-04 1 1  ON 30
 uuAs_1                -2.221191e-04 1 1  ON 31
 uuAs_2                -1.164992e-04 1 1  ON 32
 uuAs_3                 1.086285e-05 1 1  ON 33
 uuAs_4                 2.793923e-05 1 1  ON 34
 uuAs_5                 3.478453e-05 1 1  ON 35
 uuAs_6                -4.707932e-04 1 1  ON 36
 uuAs_7                 6.576866e-05 1 1  ON 37
 uuAs_8                 5.952717e-07 1 1  ON 38
 uuAs_9                 1.560348e-04 1 1  ON 39
uuAs_10                 4.967659e-05 1 1  ON 40
uuAs_11                -4.558095e-05 1 1  ON 41
uuAs_12                 4.776446e-06 1 1  ON 42
uuAs_13                 1.133353e-04 1 1  ON 43
uuAs_14                 1.866428e-05 1 1  ON 44
uuAs_15                -1.960454e-06 1 1  ON 45
uuAs_16                -2.401378e-04 1 1  ON 46
uuAs_17                 1.202682e-04 1 1  ON 47
uuAs_18                 3.975265e-05 1 1  ON 48
uuAs_19                -8.737296e-06 1 1  ON 49
uuAs_20                -3.468021e-05 1 1  ON 50
uuAs_21                -1.346264e-05 1 1  ON 51
uuAs_22                 2.695468e-06 1 1  ON 52
uuAs_23                 2.211719e-05 1 1  ON 53
uuAs_24                 2.203483e-06 1 1  ON 54
uuAs_25                -6.130878e-07 1 1  ON 55
 udAs_0                -2.413884e-04 1 1  ON 56
 udAs_1                -1.083251e-04 1 1  ON 57
 udAs_2                 2.241618e-04 1 1  ON 58
 udAs_3                 2.851287e-04 1 1  ON 59
 udAs_4                 2.820400e-06 1 1  ON 60
 udAs_5                -1.309422e-05 1 1  ON 61
 udAs_6                 3.081351e-04 1 1  ON 62
 udAs_7                 1.326981e-04 1 1  ON 63
 udAs_8                -3.049532e-05 1 1  ON 64
 udAs_9                -4.157480e-05 1 1  ON 65
udAs_10                 1.704206e-04 1 1  ON 66
udAs_11                -1.891387e-04 1 1  ON 67
udAs_12                 2.200686e-05 1 1  ON 68
udAs_13                -3.856396e-04 1 1  ON 69
udAs_14                -3.497829e-05 1 1  ON 70
udAs_15                 1.192169e-06 1 1  ON 71
udAs_16                 4.059445e-04 1 1  ON 72
udAs_17                -5.289515e-04 1 1  ON 73
udAs_18                 2.271361e-04 1 1  ON 74
udAs_19                -1.918526e-05 1 1  ON 75
udAs_20                 5.470688e-05 1 1  ON 76
udAs_21                -1.890879e-05 1 1  ON 77
udAs_22                 1.920376e-06 1 1  ON 78
udAs_23                -1.337679e-05 1 1  ON 79
udAs_24                 3.665937e-06 1 1  ON 80
udAs_25                -4.101573e-07 1 1  ON 81
  </optVariables>
   Restore the number of walkers to 1, removing 0 walkers.
</opt>
</optimization-report>
  QMC Execution time = 5.711 secs

=========================================================
  Start VMC
  File Root As.log.s021 append = no 
=========================================================
  Using the current 1 walkers.
  Total number of walkers: 1024
  Total weight: 1024
  Resetting Properties of the walkers 1 x 13

<vmc function="put">
  qmc_counter=0  my_counter=0
  time step      = 0.15
  blocks         = 200
  steps          = 1
  substeps       = 30
  current        = 0
  target samples = 4096
  walkers/mpi    = 1

  stepsbetweensamples = 50
<parameter name="blocks" condition="int">200</parameter>
<parameter name="blocks_between_recompute" condition="int">0</parameter>
<parameter name="check_properties" condition="int">100</parameter>
<parameter name="checkproperties" condition="int">100</parameter>
<parameter name="current" condition="int">0</parameter>
<parameter name="dmcwalkersperthread" condition="real">4</parameter>
<parameter name="maxcpusecs" condition="real">3.6e+05</parameter>
<parameter name="record_configs" condition="int">0</parameter>
<parameter name="record_walkers" condition="int">50</parameter>
<parameter name="recordconfigs" condition="int">0</parameter>
<parameter name="recordwalkers" condition="int">50</parameter>
<parameter name="rewind" condition="int">0</parameter>
<parameter name="samples" condition="real">4096</parameter>
<parameter name="samplesperthread" condition="real">4</parameter>
<parameter name="steps" condition="int">1</parameter>
<parameter name="stepsbetweensamples" condition="int">50</parameter>
<parameter name="store_configs" condition="int">0</parameter>
<parameter name="storeconfigs" condition="int">0</parameter>
<parameter name="sub_steps" condition="int">30</parameter>
<parameter name="substeps" condition="int">30</parameter>
<parameter name="tau" condition="au">0.15</parameter>
<parameter name="time_step" condition="au">0.15</parameter>
<parameter name="timestep" condition="au">0.15</parameter>
<parameter name="use_drift" condition="string">no</parameter>
<parameter name="usedrift" condition="string">no</parameter>
<parameter name="walkers" condition="int">1</parameter>
<parameter name="warmup_steps" condition="int">100</parameter>
<parameter name="warmupsteps" condition="int">100</parameter>
  DumpConfig==true Configurations are dumped to config.h5 with a period of 200 blocks
  Walker Samples are dumped every 50 steps.
</vmc>
  Set drift_modifier UNR parameter a = 1
  EstimatorManagerBase::add replace LocalEnergy estimator.
  Cannot make clones again. Use existing 1 clones
  Initial partition of walkers 0 1 

  Using Particle by Particle moves
  Walker moves without drift
  Total Sample Size   =4096
  Walker distribution on root = 0 1 
  Using Locality Approximation
===== Memory Usage after the buffer registration =====
Available memory on node 0, free + buffers : 53296 MB
Memory footprint by rank 0 on node 0       : 646 MB
==================================================
  Anonymous Buffer size per walker : 2176 Bytes.
MEMORY increase 0 MB VMC::resetRun
  samples are written to the config.h5
====================================================
  SimpleFixedNodeBranch::finalize after a VMC block
    QMC counter        = 21
    time step          = 0.15
    reference energy   = -6.10464
    reference variance = 0.566199
====================================================
  QMC Execution time = 2.875 secs

=========================================================
  Start DMC
  File Root As.log.s022 append = no 
=========================================================
Using existing walkers 
  Resetting Properties of the walkers 1 x 13
  Set drift_modifier UNR parameter a = 1
  EstimatorManagerBase::add replace LocalEnergy estimator.
  Cannot make clones again. Use existing 1 clones
  Total number of walkers: 4096
  Total weight: 4096
  Creating WalkerController: target  number of walkers = 4096
  Using WalkerControlMPI for dynamic population control.
  START ALL OVER 
  WalkerControlBase parameters 
    maxCopy = 2
    Max Walkers per MPI rank 9
    Min Walkers per MPI rank 1
    Using non-blocking send/recv
  QMC counter      = 22
  time step        = 0.02
  effective time step = 0.02
  trial energy     = -6.105
  reference energy = -6.105
  Feedback = 1
  reference variance = 0.5662
  target walkers = 4096
  branching cutoff scheme classic
  branch cutoff = 50 75
  Max and minimum walkers per node= 9 1
  QMC Status (BranchMode) = 0000001101
  Initial partition of walkers on a node: 0 4 
  Updates by particle-by-particle moves
  DMC moves are rejected when a node crossing is detected
  Using Non-local T-moves v1, M. Casula et al., JCP 132, 154113 (2010)
===== Memory Usage after the buffer registration =====
Available memory on node 0, free + buffers : 53234 MB
Memory footprint by rank 0 on node 0       : 659 MB
==================================================
SimpleFixedNodeBranch::checkParameters 
  Average Energy of a population  = -6.13688
  Energy Variance = 0.481416

  Fluctuating population
  Persistent walkers are killed after 1 MC sweeps
  BranchInterval = 1
  Steps per block = 50
  Number of blocks = 150

  DMC Engine Initialization = 0.03913 secs

 Warmup is completed after 200

  TauEff     = 0.0199
 TauEff/Tau = 0.9951
  Etrial     = -6.19
 Running average of energy = -6.159
                  Variance = 0.3875
branch cutoff = 10 15
====================================================
  SimpleFixedNodeBranch::finalize after a DMC block
    QMC counter                   = 22
    time step                     = 0.02
    effective time step           = 0.0199035
    trial energy                  = -6.15237
    reference energy              = -6.16169
    reference variance            = 0.387499
    target walkers                = 4096
    branch cutoff                 = 10 15
    Max and minimum walkers per node= 9 1
    Feedback                      = 1
    QMC Status (BranchMode)       = 0000001111
====================================================
  QMC Execution time = 195.3 secs
  Reusing DMC
BRANCH resetRun
 SimpleFixedNodeBranch::resetRun detected changes in <parameter>'s 
 BranchMode : 0000001111 0000001111
  WalkerControlBase parameters 
    maxCopy = 2
    Max Walkers per MPI rank 9
    Min Walkers per MPI rank 1
    Using non-blocking send/recv
 iParam (old):                  0                 1                22              4096                 9                 1                 1                 0
 iParam (new):                100                 1                22              4096                 9                 1                 1                 0
 vParam (old):               0.02      0.0199034922      -6.152370346      -6.161690992      -6.163269264                15                10               0.2       0.387499459      -44986.50751              7301                 1                10                 1                 1                 1                 1
 vParam (new):               0.01      0.0199034922      -6.152370346      -6.161690992      -6.163269264                15                10               0.2       0.387499459      -44986.50751              7301                 1                10                 1                 1                 1                 1

 Using branching cutoff scheme classic
SimpleFixedNodeBranch::checkParameters 
  Average Energy of a population  = -6.16295
  Energy Variance = 0.326721

  Using Non-local T-moves v1, M. Casula et al., JCP 132, 154113 (2010)
===== Memory Usage after the buffer registration =====
Available memory on node 0, free + buffers : 53241 MB
Memory footprint by rank 0 on node 0       : 662 MB
==================================================

=========================================================
  Start DMC
  File Root As.log.s023 append = no 
=========================================================
Using existing walkers 
  Resetting Properties of the walkers 1 x 13
  Set drift_modifier UNR parameter a = 1
  EstimatorManagerBase::add replace LocalEnergy estimator.
  Cannot make clones again. Use existing 1 clones
SimpleFixedNodeBranch::checkParameters 
  Average Energy of a population  = -6.16044
  Energy Variance = 0.339755

  Fluctuating population
  Persistent walkers are killed after 1 MC sweeps
  BranchInterval = 1
  Steps per block = 100
  Number of blocks = 200

  DMC Engine Initialization = 0.0003850460052 secs

 Warmup is completed after 100

  TauEff     = 0.009981835603
 TauEff/Tau = 0.9981835603
  Etrial     = -5.988824227
 Running average of energy = -6.165981026
                  Variance = 0.3556245315
branch cutoff = 10 15
====================================================
  SimpleFixedNodeBranch::finalize after a DMC block
    QMC counter                   = 23
    time step                     = 0.01
    effective time step           = 0.00998233
    trial energy                  = -6.1671
    reference energy              = -6.16247
    reference variance            = 0.355625
    target walkers                = 4096
    branch cutoff                 = 10 15
    Max and minimum walkers per node= 9 1
    Feedback                      = 1
    QMC Status (BranchMode)       = 0000001111
====================================================
  QMC Execution time = 520 secs
  Reusing DMC
BRANCH resetRun
 SimpleFixedNodeBranch::resetRun detected changes in <parameter>'s 
 BranchMode : 0000001111 0000001111
  WalkerControlBase parameters 
    maxCopy = 2
    Max Walkers per MPI rank 9
    Min Walkers per MPI rank 1
    Using non-blocking send/recv
 iParam (old):                  0                 1                23              4096                 9                 1                 1                 0
 iParam (new):                200                 1                23              4096                 9                 1                 1                 0
 vParam (old):               0.01    0.009982330474        -6.1670979      -6.162469953      -6.152260801                15                10               0.2      0.3556245315      -122639.3043             19901                 1                10                 1                 1                 1                 1
 vParam (new):              0.005    0.009982330474        -6.1670979      -6.162469953      -6.152260801                15                10               0.2      0.3556245315      -122639.3043             19901                 1                10                 1                 1                 1                 1

 Using branching cutoff scheme classic
SimpleFixedNodeBranch::checkParameters 
  Average Energy of a population  = -6.15059
  Energy Variance = 0.430967

  Using Non-local T-moves v1, M. Casula et al., JCP 132, 154113 (2010)
===== Memory Usage after the buffer registration =====
Available memory on node 0, free + buffers : 53220 MB
Memory footprint by rank 0 on node 0       : 666 MB
==================================================

=========================================================
  Start DMC
  File Root As.log.s024 append = no 
=========================================================
Using existing walkers 
  Resetting Properties of the walkers 1 x 13
  Set drift_modifier UNR parameter a = 1
  EstimatorManagerBase::add replace LocalEnergy estimator.
  Cannot make clones again. Use existing 1 clones
SimpleFixedNodeBranch::checkParameters 
  Average Energy of a population  = -6.15078
  Energy Variance = 0.431664

  Fluctuating population
  Persistent walkers are killed after 1 MC sweeps
  BranchInterval = 1
  Steps per block = 200
  Number of blocks = 250

  DMC Engine Initialization = 0.001395940781 secs

 Warmup is completed after 200

  TauEff     = 0.004996845484
 TauEff/Tau = 0.9993690969
  Etrial     = -6.050858775
 Running average of energy = -6.162617502
                  Variance = 0.3705664804
branch cutoff = 10 15
====================================================
  SimpleFixedNodeBranch::finalize after a DMC block
    QMC counter                   = 24
    time step                     = 0.005
    effective time step           = 0.00499679
    trial energy                  = -6.16709
    reference energy              = -6.16343
    reference variance            = 0.370566
    target walkers                = 4096
    branch cutoff                 = 10 15
    Max and minimum walkers per node= 9 1
    Feedback                      = 1
    QMC Status (BranchMode)       = 0000001111
====================================================
  QMC Execution time = 1304 secs
  Reusing DMC
BRANCH resetRun
 SimpleFixedNodeBranch::resetRun detected changes in <parameter>'s 
 BranchMode : 0000001111 0000001111
  WalkerControlBase parameters 
    maxCopy = 2
    Max Walkers per MPI rank 9
    Min Walkers per MPI rank 1
    Using non-blocking send/recv
 iParam (old):                  0                 1                24              4096                 9                 1                 1                 0
 iParam (new):                400                 1                24              4096                 9                 1                 1                 0
 vParam (old):              0.005    0.004996791017      -6.167089882      -6.163434462      -6.174825054                15                10               0.2      0.3705664804       -306945.211             49801                 1                10                 1                 1                 1                 1
 vParam (new):             0.0025    0.004996791017      -6.167089882      -6.163434462      -6.174825054                15                10               0.2      0.3705664804       -306945.211             49801                 1                10                 1                 1                 1                 1

 Using branching cutoff scheme classic
SimpleFixedNodeBranch::checkParameters 
  Average Energy of a population  = -6.17587
  Energy Variance = 0.367604

  Using Non-local T-moves v1, M. Casula et al., JCP 132, 154113 (2010)
===== Memory Usage after the buffer registration =====
Available memory on node 0, free + buffers : 53192 MB
Memory footprint by rank 0 on node 0       : 671 MB
==================================================

=========================================================
  Start DMC
  File Root As.log.s025 append = no 
=========================================================
Using existing walkers 
  Resetting Properties of the walkers 1 x 13
  Set drift_modifier UNR parameter a = 1
  EstimatorManagerBase::add replace LocalEnergy estimator.
  Cannot make clones again. Use existing 1 clones
SimpleFixedNodeBranch::checkParameters 
  Average Energy of a population  = -6.17693
  Energy Variance = 0.358523

  Fluctuating population
  Persistent walkers are killed after 1 MC sweeps
  BranchInterval = 1
  Steps per block = 400
  Number of blocks = 300

  DMC Engine Initialization = 0.001210212708 secs

 Warmup is completed after 400

  TauEff     = 0.002499425759
 TauEff/Tau = 0.9997703038
  Etrial     = -6.166596344
 Running average of energy = -6.166006855
                  Variance = 0.3569068108
branch cutoff = 10 15
====================================================
  SimpleFixedNodeBranch::finalize after a DMC block
    QMC counter                   = 25
    time step                     = 0.0025
    effective time step           = 0.00249942
    trial energy                  = -6.16195
    reference energy              = -6.16318
    reference variance            = 0.356907
    target walkers                = 4096
    branch cutoff                 = 10 15
    Max and minimum walkers per node= 9 1
    Feedback                      = 1
    QMC Status (BranchMode)       = 0000001111
====================================================
  QMC Execution time = 3113 secs
  Total Execution time = 5255 secs

=========================================================
  A new xml input file : As.log.s025.cont.xml
TACC:  Shutdown complete. Exiting. 
