
 Primary working directories    : /global/cscratch1/sd/aannabe
 Secondary working directories  : /global/cscratch1/sd/aannabe
 Wavefunction directory         : /global/homes/a/aannabe/wfu/
 Main file repository           : /global/cscratch1/sd/aannabe/

 SHA1      : 19cd028119e0e09f93f0674bd8af7968d9b3eff6
 NAME      : 2015.1.36
 ARCHNAME  : linux/x86_64
 FC        : /opt/cray/pe/craype/2.5.14/bin/ftn
 BLASLIB   : -L/opt/intel/compilers_and_libraries_2018.1.163/linux/mkl/lib/intel64 -Wl,-_start-group -lmkl_intel_ilp64 -lmkl_intel_thread -lmkl_core -Wl,-_end-group -liomp5
 id        : lbl

 Nodes     nprocs
 nid00466     1

 Using customized tuning parameters: mindgm=7; mindgv=16; mindgc=1; mindgr=1; noblas=0; minvec=7
 default implementation of scratch files=df  

 ***,As
 memory,8,g
 gthresh,twoint=1.e-12
 
 gprint,basis,orbitals
 gexpec,ekin,pot
 
 angstrom
 geometry={
 1                                                                               ! Number of atoms
 As 0.0 0.0 0.0
 }
 
 basis={
 
 Including file /global/homes/a/aannabe/repos/pseudopotentiallibrary/recipes/As/ccECP/As.ccECP.molpro
 
                                   !include,/global/homes/a/aannabe/repos/pseudopotentiallibrary/recipes/As/ccECP/As.cc-pVQZ.molpro
                                  !include,/global/homes/a/aannabe/repos/pseudopotentiallibrary/recipes/As/ccECP/As.cc-pCVQZ.molpro
 Including file /global/homes/a/aannabe/repos/pseudopotentiallibrary/recipes/As/ccECP/As.aug-cc-pVQZ.molpro
 
 
 }
 
 {hf
 wf,5,8,3
 occ,1,1,1,0,1,0,0,0
                                                                                 !open,1.3
 closed,1,0,0,0,0,0,0,0
                                                                                 !sym,
 }
 scf(i)=energy
 
 _CC_NORM_MAX=2.0
 {ci
 maxit,100
 core
 }
 posthf(i)=energy
 
 table,scf,posthf,ekin,pot
 save,4.csv,new
 
 

 Variables initialized (889), CPU time= 0.00 sec
 Commands  initialized (702), CPU time= 0.01 sec, 572 directives.
 Default parameters read. Elapsed time= 0.11 sec

 Checking input...
 Passed
1


                                         ***  PROGRAM SYSTEM MOLPRO  ***
                                       Copyright, TTI GmbH Stuttgart, 2015
                                    Version 2015.1 linked Dec 29 2018 15:55:43


 **********************************************************************************************************************************
 LABEL *   As                                                                            
  64 bit serial version                                                                  DATE: 23-Jun-19          TIME: 18:22:57  
 **********************************************************************************************************************************

 SHA1:             19cd028119e0e09f93f0674bd8af7968d9b3eff6
 **********************************************************************************************************************************

 THRESHOLDS:

 ZERO    =  1.00D-12  ONEINT  =  1.00D-12  TWOINT  =  1.00D-12  PREFAC  =  1.00D-14  LOCALI  =  1.00D-09  EORDER  =  1.00D-04
 ENERGY  =  0.00D+00  ETEST   =  0.00D+00  EDENS   =  0.00D+00  THRDEDEF=  1.00D-06  GRADIENT=  1.00D-02  STEP    =  1.00D-03
 ORBITAL =  1.00D-05  CIVEC   =  1.00D-05  COEFF   =  1.00D-04  PRINTCI =  5.00D-02  PUNCHCI =  9.90D+01  OPTGRAD =  3.00D-04
 OPTENERG=  1.00D-06  OPTSTEP =  3.00D-04  THRGRAD =  1.00D-10  COMPRESS=  1.00D-11  VARMIN  =  1.00D-07  VARMAX  =  1.00D-03
 THRDOUB =  0.00D+00  THRDIV  =  1.00D-05  THRRED  =  1.00D-07  THRPSP  =  1.00D+00  THRDC   =  1.00D-10  THRCS   =  1.00D-10
 THRNRM  =  1.00D-08  THREQ   =  0.00D+00  THRDE   =  1.00D+00  THRREF  =  1.00D-05  SPARFAC =  1.00D+00  THRDLP  =  1.00D-07
 THRDIA  =  1.00D-10  THRDLS  =  1.00D-07  THRGPS  =  0.00D+00  THRKEX  =  0.00D+00  THRDIS  =  2.00D-01  THRVAR  =  1.00D-10
 THRLOC  =  1.00D-06  THRGAP  =  1.00D-06  THRLOCT = -1.00D+00  THRGAPT = -1.00D+00  THRORB  =  1.00D-06  THRMLTP =  0.00D+00
 THRCPQCI=  1.00D-10  KEXTA   =  0.00D+00  THRCOARS=  0.00D+00  SYMTOL  =  1.00D-06  GRADTOL =  1.00D-06  THROVL  =  1.00D-08
 THRORTH =  1.00D-08  GRID    =  1.00D-06  GRIDMAX =  1.00D-03  DTMAX   =  0.00D+00  THROCCDE=  1.00D-01  THROCCDE=  1.00D-01



 ZUNIT=ANG
 

Geometry recognized as XYZ


 Variable memory set to 8000000000 words,  buffer space   230000 words

 SETTING BASIS          =    USERDEF


 Recomputing integrals since basis changed


 Using spherical harmonics



 PROGRAM * SEWARD (Integral evaluation for generally contracted gaussian basis sets)     Author: Roland Lindh, 1990

 Geometry written to block  1 of record 700

 Orientation using atomic masses  
 Molecule type: Atom
 Symmetry elements: X,Y,Z
 Rotational constants:       0.0000000      0.0000000      0.0000000 GHz  (calculated with average atomic masses)

 Point group  D2h 



 ATOMIC COORDINATES

 NR  ATOM    CHARGE       X              Y              Z

   1  AS      5.00    0.000000000    0.000000000    0.000000000


          AS  CORE POTENTIAL

          f POTENTIAL

 POWERS             1              3              2              2
 EXPONENTIALS   1.285931       9.934874       1.895682       1.728256    
 COEFFICIENTS   5.000000       6.429657      -15.01244       2.898814    

          s - f POTENTIAL

 POWERS             2              2
 EXPONENTIALS   3.479387       1.637480    
 COEFFICIENTS   75.65519      -3.311453    

          p - f POTENTIAL

 POWERS             2              2
 EXPONENTIALS   3.229364       1.666366    
 COEFFICIENTS   67.96187      -3.094558    

          d - f POTENTIAL

 POWERS             2              2
 EXPONENTIALS   2.068163       1.546999    
 COEFFICIENTS   24.30473      0.9394562    


 BASIS DATA

   Nr Sym  Nuc  Type         Exponents   Contraction coefficients

    1.1 Ag    1  1s          50.230536    -0.000538
                             22.441775     0.003660
                             10.026436    -0.023992
                              4.479567     0.158076
                              2.001361    -0.419346
                              0.894159    -0.100519
                              0.399488     0.450020
                              0.178482     0.605104
                              0.079741     0.190009
    2.1 Ag    1  1s           0.530586     1.000000
    3.1 Ag    1  1s           0.234584     1.000000
    4.1 Ag    1  1s           0.103715     1.000000
    5.1 Ag    1  1s           0.041486     1.000000
    6.1 Ag    1  3d0          1.374619     1.000000
    7.1 Ag    1  3d2+         1.374619     1.000000
    8.1 Ag    1  3d0          0.506785     1.000000
    9.1 Ag    1  3d2+         0.506785     1.000000
   10.1 Ag    1  3d0          0.186838     1.000000
   11.1 Ag    1  3d2+         0.186838     1.000000
   12.1 Ag    1  3d0          0.074735     1.000000
   13.1 Ag    1  3d2+         0.074735     1.000000
   14.1 Ag    1  5g0          0.561801     1.000000
   15.1 Ag    1  5g4+         0.561801     1.000000
   16.1 Ag    1  5g2+         0.561801     1.000000
   17.1 Ag    1  5g0          0.224720     1.000000
   18.1 Ag    1  5g4+         0.224720     1.000000
   19.1 Ag    1  5g2+         0.224720     1.000000
    1.2 B3u   1  2px         22.695464     0.000322
                             10.529662    -0.003120
                              4.885284     0.029849
                              2.266549    -0.127882
                              1.051576    -0.004461
                              0.487883     0.248666
                              0.226356     0.457083
                              0.105019     0.351483
                              0.048724     0.091636
    2.2 B3u   1  2px          0.550578     1.000000
    3.2 B3u   1  2px          0.212539     1.000000
    4.2 B3u   1  2px          0.082046     1.000000
    5.2 B3u   1  2px          0.032818     1.000000
    6.2 B3u   1  4f1+         0.642896     1.000000
    7.2 B3u   1  4f3+         0.642896     1.000000
    8.2 B3u   1  4f1+         0.261483     1.000000
    9.2 B3u   1  4f3+         0.261483     1.000000
   10.2 B3u   1  4f1+         0.104593     1.000000
   11.2 B3u   1  4f3+         0.104593     1.000000
    1.3 B2u   1  2py         22.695464     0.000322
                             10.529662    -0.003120
                              4.885284     0.029849
                              2.266549    -0.127882
                              1.051576    -0.004461
                              0.487883     0.248666
                              0.226356     0.457083
                              0.105019     0.351483
                              0.048724     0.091636
    2.3 B2u   1  2py          0.550578     1.000000
    3.3 B2u   1  2py          0.212539     1.000000
    4.3 B2u   1  2py          0.082046     1.000000
    5.3 B2u   1  2py          0.032818     1.000000
    6.3 B2u   1  4f1-         0.642896     1.000000
    7.3 B2u   1  4f3-         0.642896     1.000000
    8.3 B2u   1  4f1-         0.261483     1.000000
    9.3 B2u   1  4f3-         0.261483     1.000000
   10.3 B2u   1  4f1-         0.104593     1.000000
   11.3 B2u   1  4f3-         0.104593     1.000000
    1.4 B1g   1  3d2-         1.374619     1.000000
    2.4 B1g   1  3d2-         0.506785     1.000000
    3.4 B1g   1  3d2-         0.186838     1.000000
    4.4 B1g   1  3d2-         0.074735     1.000000
    5.4 B1g   1  5g2-         0.561801     1.000000
    6.4 B1g   1  5g4-         0.561801     1.000000
    7.4 B1g   1  5g2-         0.224720     1.000000
    8.4 B1g   1  5g4-         0.224720     1.000000
    1.5 B1u   1  2pz         22.695464     0.000322
                             10.529662    -0.003120
                              4.885284     0.029849
                              2.266549    -0.127882
                              1.051576    -0.004461
                              0.487883     0.248666
                              0.226356     0.457083
                              0.105019     0.351483
                              0.048724     0.091636
    2.5 B1u   1  2pz          0.550578     1.000000
    3.5 B1u   1  2pz          0.212539     1.000000
    4.5 B1u   1  2pz          0.082046     1.000000
    5.5 B1u   1  2pz          0.032818     1.000000
    6.5 B1u   1  4f0          0.642896     1.000000
    7.5 B1u   1  4f2+         0.642896     1.000000
    8.5 B1u   1  4f0          0.261483     1.000000
    9.5 B1u   1  4f2+         0.261483     1.000000
   10.5 B1u   1  4f0          0.104593     1.000000
   11.5 B1u   1  4f2+         0.104593     1.000000
    1.6 B2g   1  3d1+         1.374619     1.000000
    2.6 B2g   1  3d1+         0.506785     1.000000
    3.6 B2g   1  3d1+         0.186838     1.000000
    4.6 B2g   1  3d1+         0.074735     1.000000
    5.6 B2g   1  5g1+         0.561801     1.000000
    6.6 B2g   1  5g3+         0.561801     1.000000
    7.6 B2g   1  5g1+         0.224720     1.000000
    8.6 B2g   1  5g3+         0.224720     1.000000
    1.7 B3g   1  3d1-         1.374619     1.000000
    2.7 B3g   1  3d1-         0.506785     1.000000
    3.7 B3g   1  3d1-         0.186838     1.000000
    4.7 B3g   1  3d1-         0.074735     1.000000
    5.7 B3g   1  5g1-         0.561801     1.000000
    6.7 B3g   1  5g3-         0.561801     1.000000
    7.7 B3g   1  5g1-         0.224720     1.000000
    8.7 B3g   1  5g3-         0.224720     1.000000
    1.8 Au    1  4f2-         0.642896     1.000000
    2.8 Au    1  4f2-         0.261483     1.000000
    3.8 Au    1  4f2-         0.104593     1.000000

 NUCLEAR CHARGE:                    5
 NUMBER OF PRIMITIVE AOS:         136
 NUMBER OF SYMMETRY AOS:          111
 NUMBER OF CONTRACTIONS:           79   (  19Ag  +  11B3u +  11B2u +   8B1g +  11B1u +   8B2g +   8B3g +   3Au  )
 NUMBER OF CORE ORBITALS:           0   (   0Ag  +   0B3u +   0B2u +   0B1g +   0B1u +   0B2g +   0B3g +   0Au  )
 NUMBER OF VALENCE ORBITALS:        4   (   1Ag  +   1B3u +   1B2u +   0B1g +   1B1u +   0B2g +   0B3g +   0Au  )


 NUCLEAR REPULSION ENERGY    0.00000000

 EXTRA SYMMETRY OF AOS IN SYMMETRY 1:   1 1 1 1 1 2 3 2 3 2   3 2 3 4 5 6 4 5 6
 EXTRA SYMMETRY OF AOS IN SYMMETRY 2:   1 1 1 1 1 2 3 2 3 2   3
 EXTRA SYMMETRY OF AOS IN SYMMETRY 3:   1 1 1 1 1 2 3 2 3 2   3
 EXTRA SYMMETRY OF AOS IN SYMMETRY 4:   1 1 1 1 2 3 2 3
 EXTRA SYMMETRY OF AOS IN SYMMETRY 5:   1 1 1 1 1 2 3 2 3 2   3
 EXTRA SYMMETRY OF AOS IN SYMMETRY 6:   1 1 1 1 2 3 2 3
 EXTRA SYMMETRY OF AOS IN SYMMETRY 7:   1 1 1 1 2 3 2 3

 Eigenvalues of metric

         1 0.435E-02 0.253E-01 0.103E+00 0.103E+00 0.183E+00 0.398E+00 0.398E+00 0.428E+00
         2 0.427E-02 0.507E-01 0.188E+00 0.188E+00 0.290E+00 0.807E+00 0.807E+00 0.106E+01
         3 0.427E-02 0.507E-01 0.188E+00 0.188E+00 0.290E+00 0.807E+00 0.807E+00 0.106E+01
         4 0.103E+00 0.398E+00 0.428E+00 0.428E+00 0.118E+01 0.157E+01 0.157E+01 0.232E+01
         5 0.427E-02 0.507E-01 0.188E+00 0.188E+00 0.290E+00 0.807E+00 0.807E+00 0.106E+01
         6 0.103E+00 0.398E+00 0.428E+00 0.428E+00 0.118E+01 0.157E+01 0.157E+01 0.232E+01
         7 0.103E+00 0.398E+00 0.428E+00 0.428E+00 0.118E+01 0.157E+01 0.157E+01 0.232E+01
         8 0.188E+00 0.807E+00 0.200E+01


 Contracted 2-electron integrals neglected if value below      1.0D-12
 AO integral compression algorithm  1   Integral accuracy      1.0D-12

     6.291 MB (compressed) written to integral file ( 65.6%)


 NUMBER OF SORTED TWO-ELECTRON INTEGRALS:     665704.     BUFFER LENGTH:  32768
 NUMBER OF SEGMENTS:   1  SEGMENT LENGTH:     665704      RECORD LENGTH: 524288

 Memory used in sort:       1.22 MW

 SORT1 READ     1222209. AND WROTE      500866. INTEGRALS IN      2 RECORDS. CPU TIME:     0.02 SEC, REAL TIME:     0.04 SEC
 SORT2 READ      500866. AND WROTE      665704. INTEGRALS IN     24 RECORDS. CPU TIME:     0.05 SEC, REAL TIME:     0.10 SEC

 FILE SIZES:   FILE 1:    26.3 MBYTE,  FILE 4:     8.4 MBYTE,   TOTAL:     34.7 MBYTE

 OPERATOR DM      FOR CENTER  0  COORDINATES:    0.000000    0.000000    0.000000
 OPERATOR EKIN    FOR CENTER  0  COORDINATES:    0.000000    0.000000    0.000000
 OPERATOR POT     FOR CENTER  0  COORDINATES:    0.000000    0.000000    0.000000


 **********************************************************************************************************************************
 DATASETS  * FILE   NREC   LENGTH (MB)   RECORD NAMES
              1      20       23.46       500      610      700      900      950      970     1000      129      960     1100   
                                          VAR    BASINP    GEOM    SYMINP    ZMAT    AOBASIS   BASIS     P2S    ABASIS      S 
                                         1400     1410     1420     1200     1210     1080     1600     1650     1300     1700   
                                         EKIN       V       ECP      H0       H01     AOSYM     SMH    MOLCAS    ERIS     OPER   

 PROGRAMS   *        TOTAL       INT
 CPU TIMES  *         1.85      1.76
 REAL TIME  *        11.44 SEC
 DISK USED  *        35.03 MB      
 **********************************************************************************************************************************


 PROGRAM * RHF-SCF (OPEN SHELL)       Authors: W. Meyer, H.-J. Werner


 NUMBER OF ELECTRONS:       4+    1-    SPACE SYMMETRY=8    SPIN SYMMETRY: Quartet 
 CONVERGENCE THRESHOLDS:    1.00E-05 (Density)    1.00E-07 (Energy)
 MAX. NUMBER OF ITERATIONS:       60
 INTERPOLATION TYPE:            DIIS
 INTERPOLATION STEPS:              2 (START)      1 (STEP)
 LEVEL SHIFTS:                 -0.60 (CLOSED) -0.30 (OPEN) 

 Number of closed-shell orbitals:    1 (   1   0   0   0   0   0   0   0 )
 Number of open-shell orbitals:      3 (   0   1   1   0   1   0   0   0 )



   Atom=AS basis=ECP28MDF_GUESS    lmin=0  lmax=1

 Orbital guess generated from atomic densities. Full valence occupancy:    1   1   1   0   1   0   0   0


 Molecular orbital dump at record        2100.2

 ITERATION    DDIFF          GRAD             ENERGY        2-EL.EN.            DIPOLE MOMENTS         DIIS   ORB.
    1      0.000D+00      0.000D+00        -6.05204386      6.785920    0.00000    0.00000    0.00000    0    start
    2      0.000D+00      0.631D-02        -6.06250913      6.963405    0.00000    0.00000    0.00000    1    diag,B
    3      0.993D-02      0.275D-02        -6.06543969      7.063067    0.00000    0.00000    0.00000    2    diag,B
    4      0.527D-02      0.112D-02        -6.06586600      7.093110    0.00000    0.00000    0.00000    3    diag,B
    5      0.292D-02      0.234D-03        -6.06587720      7.092564    0.00000    0.00000    0.00000    4    diag,B
    6      0.754D-03      0.468D-04        -6.06587764      7.092912    0.00000    0.00000    0.00000    5    diag,B
    7      0.161D-03      0.900D-05        -6.06587765      7.092851    0.00000    0.00000    0.00000    6    fixocc
    8      0.283D-04      0.119D-05        -6.06587765      7.092844    0.00000    0.00000    0.00000    7    diag,B
    9      0.495D-05      0.235D-06        -6.06587765      7.092842    0.00000    0.00000    0.00000    0    orth

 Final alpha occupancy:   1   1   1   0   1   0   0   0
 Final beta  occupancy:   1   0   0   0   0   0   0   0

 !RHF STATE 1.8 Energy                 -6.065877647813
 Nuclear energy                         0.00000000
 One-electron energy                   -9.61229841
 Two-electron energy                    3.54642076
 Virial quotient                       -2.63827678
 !RHF STATE 1.8 Dipole moment           0.00000000     0.00000000     0.00000000
 Dipole moment /Debye                   0.00000000     0.00000000     0.00000000
 

 !RHF expec          <1.8|EKIN|1.8>     2.299181678861
 
 !RHF expec           <1.8|POT|1.8>    -2.512304490167

 ELECTRON ORBITALS
 =================


   Orb  Occ    Energy  Couls-En    Coefficients

                                   1 1s      1 1s      1 1s      1 1s      1 1s      1 3d0     1 3d2+    1 3d0     1 3d2+    1 3d0  
                                   1 3d2+    1 3d0     1 3d2+    1 5g0     1 5g4+    1 5g2+    1 5g0     1 5g4+    1 5g2+ 

   1.1   2    -0.7039   -2.9217  0.998891 -0.001857  0.005158 -0.004600  0.002626 -0.000000 -0.000000  0.000000  0.000000  0.000000
                                -0.000000 -0.000000  0.000000 -0.000000 -0.000000  0.000000  0.000000  0.000000 -0.000000

                                   1 2px     1 2px     1 2px     1 2px     1 2px     1 4f1+    1 4f3+    1 4f1+    1 4f3+    1 4f1+ 
                                   1 4f3+ 

   1.2   +    -0.3706   -2.0961  0.999963 -0.000030  0.000157 -0.000305  0.000318 -0.000000  0.000000  0.000000 -0.000000 -0.000000
                                 0.000000

                                   1 2py     1 2py     1 2py     1 2py     1 2py     1 4f1-    1 4f3-    1 4f1-    1 4f3-    1 4f1- 
                                   1 4f3- 

   1.3   +    -0.3706   -2.0961  0.999963 -0.000030  0.000157 -0.000305  0.000318 -0.000000 -0.000000  0.000000  0.000000 -0.000000
                                -0.000000

                                   1 2pz     1 2pz     1 2pz     1 2pz     1 2pz     1 4f0     1 4f2+    1 4f0     1 4f2+    1 4f0  
                                   1 4f2+ 

   1.5   +    -0.3706   -2.0961  0.999963 -0.000030  0.000157 -0.000305  0.000318  0.000000  0.000000  0.000000 -0.000000  0.000000
                                -0.000000

 HOMO      1.2    -0.370552 =     -10.0832eV
 LUMO      2.1     0.076470 =       2.0808eV
 LUMO-HOMO         0.447022 =      12.1641eV


 **********************************************************************************************************************************
 DATASETS  * FILE   NREC   LENGTH (MB)   RECORD NAMES
              1      20       23.46       500      610      700      900      950      970     1000      129      960     1100   
                                          VAR    BASINP    GEOM    SYMINP    ZMAT    AOBASIS   BASIS     P2S    ABASIS      S 
                                         1400     1410     1420     1200     1210     1080     1600     1650     1300     1700   
                                         EKIN       V       ECP      H0       H01     AOSYM     SMH    MOLCAS    ERIS     OPER   

              2       4        2.78       700     1000      520     2100   
                                         GEOM     BASIS   MCVARS     RHF  

 PROGRAMS   *        TOTAL        HF       INT
 CPU TIMES  *         1.91      0.06      1.76
 REAL TIME  *        11.65 SEC
 DISK USED  *        35.03 MB      
 **********************************************************************************************************************************
 SETTING SCF(I)         =        -6.06587765  AU                              
 SETTING _CC_NORM_MAX   =         2.00000000                                  


 PROGRAM * CI (Multireference internally contracted CI)     Authors: H.-J. Werner, P.J. Knowles, 1987


 Convergence thresholds:  THRVAR = 1.00D-08  THRDEN = 1.00D-06

 Number of optimized states:  1  Roots:   1
 Number of reference states:  1  Roots:   1

 Reference symmetry:                   8   Quartet 
 Number of electrons:                  5
 Maximum number of shells:             2
 Maximum number of spin couplings:     4

 Reference space:        1 conf        1 CSFs
 N elec internal:        4 conf        4 CSFs
 N-1 el internal:       13 conf       16 CSFs
 N-2 el internal:        7 conf       19 CSFs

 Number of electrons in valence space:                      5
 Maximum number of open shell orbitals in reference space:  3
 Maximum number of open shell orbitals in internal spaces:  5


 Number of closed-shell orbitals:   1 (   1   0   0   0   0   0   0   0 )
 Number of active  orbitals:        3 (   0   1   1   0   1   0   0   0 )
 Number of external orbitals:      75 (  18  10  10   8  10   8   8   3 )

 Molecular orbitals read from record     2100.2  Type=RHF/CANONICAL (state 1.8)

 Integral transformation finished. Total CPU:   0.01 sec, npass=  1  Memory used:   0.08 MW

 Number of p-space configurations:   1

 Reference wavefunction optimized for reference space (refopt=1)

 State     Reference Energy 
   1          -6.06587765

 Number of blocks in overlap matrix:    10   Smallest eigenvalue:  0.10D+01
 Number of N-2 electron functions:      10
 Number of N-1 electron functions:      16

 Number of internal configurations:                    1
 Number of singly external configurations:           180
 Number of doubly external configurations:          3648
 Total number of contracted configurations:         3829
 Total number of uncontracted configurations:       7138

 Diagonal Coupling coefficients finished.               Storage:     902 words, CPU-Time:      0.00 seconds.
 Energy denominators for pairs finished in 1 passes.    Storage:    6409 words, CPU-time:      0.00 seconds.

  ITER. STATE  ROOT     SQ.NORM     CORR.ENERGY   TOTAL ENERGY   ENERGY CHANGE       DEN1      VAR(S)    VAR(P)      TIME
    1     1     1     1.00000000     0.00000000    -6.06587765    -0.00000000    -0.09859451  0.36D-01  0.25D-01     0.01
    2     1     1     1.05167761    -0.09065471    -6.15653236    -0.09065471    -0.00090064  0.15D-03  0.31D-03     0.02
    3     1     1     1.05363194    -0.09163509    -6.15751273    -0.00098038    -0.00001822  0.29D-05  0.56D-05     0.03
    4     1     1     1.05370761    -0.09165432    -6.15753197    -0.00001923    -0.00000053  0.24D-06  0.13D-06     0.04
    5     1     1     1.05373107    -0.09165499    -6.15753264    -0.00000067    -0.00000002  0.18D-07  0.43D-08     0.04
    6     1     1     1.05373967    -0.09165502    -6.15753267    -0.00000003    -0.00000000  0.33D-09  0.28D-09     0.05


 =====================================
 Analysis of CPU times by interactions
 =====================================

       I      S      P

 I   0.0%
 S   0.0%   0.0%
 P   0.0%   0.0%   0.0%

 Initialization:  20.0%
 Other:           80.0%

 Total CPU:        0.1 seconds
 =====================================



 Reference coefficients greater than 0.0500000
 =============================================
 2///           0.9741668

 Coefficients of singly external configurations greater than 0.0500000
 =====================================================================

 //\/   6.1    -0.0513332



 RESULTS FOR STATE 1.8
 =====================

 Coefficient of reference function:   C(0) = 0.97416683 (fixed)   0.97416683 (relaxed)

 Energy contributions of configuration classes

 CLASS          SQ.NORM        ECORR1        ECORR2
 +++++++++++++++++++++++++++++++++++++++++++++++++++
 Internals    0.00000000    0.00000000    0.00000000
 Singles      0.03037878   -0.03913074   -0.03977633
 Pairs        0.02336088   -0.05252428   -0.05187869
 Total        1.05373967   -0.09165502   -0.09165502
 +++++++++++++++++++++++++++++++++++++++++++++++++++


 Reference energy                      -6.06587765
 Nuclear energy                         0.00000000
 Kinetic energy                         2.36544329
 One electron energy                   -9.55530432
 Two electron energy                    3.39777165
 Virial quotient                       -2.60311997
 Correlation energy                    -0.09165502
 !CI(SD) STATE 1.8 Energy              -6.157532666826

 Properties without orbital relaxation:

 !CI(SD) STATE 1.8 Dipole moment        0.00000000     0.00000000     0.00000000
 Dipole moment /Debye                   0.00000000     0.00000000     0.00000000

 Cluster corrected energies            -6.16245818 (Davidson, fixed reference)
 Cluster corrected energies            -6.16245818 (Davidson, relaxed reference)

 Cluster corrected energies            -6.15753267 (Pople, fixed reference)
 Cluster corrected energies            -6.15753267 (Pople, relaxed reference)

 

 !CI(SD) expec       <1.8|EKIN|1.8>     2.365443287385
 
 !CI(SD) expec        <1.8|POT|1.8>    -2.515046342933


 **********************************************************************************************************************************
 DATASETS  * FILE   NREC   LENGTH (MB)   RECORD NAMES
              1      21       23.59       500      610      700      900      950      970     1000      129      960     1100   
                                          VAR    BASINP    GEOM    SYMINP    ZMAT    AOBASIS   BASIS     P2S    ABASIS      S 
                                         1400     1410     1420     1200     1210     1080     1600     1650     1300     1700   
                                         EKIN       V       ECP      H0       H01     AOSYM     SMH    MOLCAS    ERIS     OPER   
                                         1380   
                                         JKOP   

              2       4        2.78       700     1000      520     2100   
                                         GEOM     BASIS   MCVARS     RHF  

 PROGRAMS   *        TOTAL        CI        HF       INT
 CPU TIMES  *         2.00      0.08      0.06      1.76
 REAL TIME  *        12.26 SEC
 DISK USED  *        35.03 MB      
 **********************************************************************************************************************************
 SETTING POSTHF(I)      =        -6.15753267  AU                              
                                                                                                                                                                                                                                                                

       SCF           POSTHF       EKIN          POT
    -6.06587765   -6.15753267   2.36544329   -2.51504634
                                                  

 CI/USERDEF energy=     -6.157532666826

        CI              HF-SCF  
     -6.15753267     -6.06587765
 **********************************************************************************************************************************
 Molpro calculation terminated
 Variable memory released
