
 Primary working directories    : /global/cscratch1/sd/aannabe
 Secondary working directories  : /global/cscratch1/sd/aannabe
 Wavefunction directory         : /global/homes/a/aannabe/wfu/
 Main file repository           : /global/cscratch1/sd/aannabe/

 SHA1      : 19cd028119e0e09f93f0674bd8af7968d9b3eff6
 NAME      : 2015.1.36
 ARCHNAME  : linux/x86_64
 FC        : /opt/cray/pe/craype/2.5.14/bin/ftn
 BLASLIB   : -L/opt/intel/compilers_and_libraries_2018.1.163/linux/mkl/lib/intel64 -Wl,-_start-group -lmkl_intel_ilp64 -lmkl_intel_thread -lmkl_core -Wl,-_end-group -liomp5
 id        : lbl

 Nodes     nprocs
 nid00466     1

 Using customized tuning parameters: mindgm=7; mindgv=16; mindgc=1; mindgr=1; noblas=0; minvec=7
 default implementation of scratch files=df  

 ***,As
 memory,8,g
 gthresh,twoint=1.e-12
 
 gprint,basis,orbitals
 gexpec,ekin,pot
 
 angstrom
 geometry={
 1                                                                               ! Number of atoms
 As 0.0 0.0 0.0
 }
 
 basis={
 
 Including file /global/homes/a/aannabe/repos/pseudopotentiallibrary/recipes/As/ccECP/As.ccECP.molpro
 
                                   !include,/global/homes/a/aannabe/repos/pseudopotentiallibrary/recipes/As/ccECP/As.cc-pV6Z.molpro
                                  !include,/global/homes/a/aannabe/repos/pseudopotentiallibrary/recipes/As/ccECP/As.cc-pCV6Z.molpro
 Including file /global/homes/a/aannabe/repos/pseudopotentiallibrary/recipes/As/ccECP/As.aug-cc-pV6Z.molpro
 
 
 }
 
 {hf
 wf,5,8,3
 occ,1,1,1,0,1,0,0,0
                                                                                 !open,1.3
 closed,1,0,0,0,0,0,0,0
                                                                                 !sym,
 }
 scf(i)=energy
 
 _CC_NORM_MAX=2.0
 {ci
 maxit,100
 core
 }
 posthf(i)=energy
 
 table,scf,posthf,ekin,pot
 save,6.csv,new
 
 

 Variables initialized (889), CPU time= 0.00 sec
 Commands  initialized (702), CPU time= 0.01 sec, 572 directives.
 Default parameters read. Elapsed time= 0.11 sec

 Checking input...
 Passed
1


                                         ***  PROGRAM SYSTEM MOLPRO  ***
                                       Copyright, TTI GmbH Stuttgart, 2015
                                    Version 2015.1 linked Dec 29 2018 15:55:43


 **********************************************************************************************************************************
 LABEL *   As                                                                            
  64 bit serial version                                                                  DATE: 23-Jun-19          TIME: 18:23:40  
 **********************************************************************************************************************************

 SHA1:             19cd028119e0e09f93f0674bd8af7968d9b3eff6
 **********************************************************************************************************************************

 THRESHOLDS:

 ZERO    =  1.00D-12  ONEINT  =  1.00D-12  TWOINT  =  1.00D-12  PREFAC  =  1.00D-14  LOCALI  =  1.00D-09  EORDER  =  1.00D-04
 ENERGY  =  0.00D+00  ETEST   =  0.00D+00  EDENS   =  0.00D+00  THRDEDEF=  1.00D-06  GRADIENT=  1.00D-02  STEP    =  1.00D-03
 ORBITAL =  1.00D-05  CIVEC   =  1.00D-05  COEFF   =  1.00D-04  PRINTCI =  5.00D-02  PUNCHCI =  9.90D+01  OPTGRAD =  3.00D-04
 OPTENERG=  1.00D-06  OPTSTEP =  3.00D-04  THRGRAD =  1.00D-10  COMPRESS=  1.00D-11  VARMIN  =  1.00D-07  VARMAX  =  1.00D-03
 THRDOUB =  0.00D+00  THRDIV  =  1.00D-05  THRRED  =  1.00D-07  THRPSP  =  1.00D+00  THRDC   =  1.00D-10  THRCS   =  1.00D-10
 THRNRM  =  1.00D-08  THREQ   =  0.00D+00  THRDE   =  1.00D+00  THRREF  =  1.00D-05  SPARFAC =  1.00D+00  THRDLP  =  1.00D-07
 THRDIA  =  1.00D-10  THRDLS  =  1.00D-07  THRGPS  =  0.00D+00  THRKEX  =  0.00D+00  THRDIS  =  2.00D-01  THRVAR  =  1.00D-10
 THRLOC  =  1.00D-06  THRGAP  =  1.00D-06  THRLOCT = -1.00D+00  THRGAPT = -1.00D+00  THRORB  =  1.00D-06  THRMLTP =  0.00D+00
 THRCPQCI=  1.00D-10  KEXTA   =  0.00D+00  THRCOARS=  0.00D+00  SYMTOL  =  1.00D-06  GRADTOL =  1.00D-06  THROVL  =  1.00D-08
 THRORTH =  1.00D-08  GRID    =  1.00D-06  GRIDMAX =  1.00D-03  DTMAX   =  0.00D+00  THROCCDE=  1.00D-01  THROCCDE=  1.00D-01



 ZUNIT=ANG
 

Geometry recognized as XYZ


 Variable memory set to 8000000000 words,  buffer space   230000 words

 SETTING BASIS          =    USERDEF


 Recomputing integrals since basis changed


 Using spherical harmonics



 PROGRAM * SEWARD (Integral evaluation for generally contracted gaussian basis sets)     Author: Roland Lindh, 1990

 Geometry written to block  1 of record 700

 Orientation using atomic masses  
 Molecule type: Atom
 Symmetry elements: X,Y,Z
 Rotational constants:       0.0000000      0.0000000      0.0000000 GHz  (calculated with average atomic masses)

 Point group  D2h 



 ATOMIC COORDINATES

 NR  ATOM    CHARGE       X              Y              Z

   1  AS      5.00    0.000000000    0.000000000    0.000000000


          AS  CORE POTENTIAL

          f POTENTIAL

 POWERS             1              3              2              2
 EXPONENTIALS   1.285931       9.934874       1.895682       1.728256    
 COEFFICIENTS   5.000000       6.429657      -15.01244       2.898814    

          s - f POTENTIAL

 POWERS             2              2
 EXPONENTIALS   3.479387       1.637480    
 COEFFICIENTS   75.65519      -3.311453    

          p - f POTENTIAL

 POWERS             2              2
 EXPONENTIALS   3.229364       1.666366    
 COEFFICIENTS   67.96187      -3.094558    

          d - f POTENTIAL

 POWERS             2              2
 EXPONENTIALS   2.068163       1.546999    
 COEFFICIENTS   24.30473      0.9394562    


 BASIS DATA

   Nr Sym  Nuc  Type         Exponents   Contraction coefficients

    1.1 Ag    1  1s          50.230536    -0.000538
                             22.441775     0.003660
                             10.026436    -0.023992
                              4.479567     0.158076
                              2.001361    -0.419346
                              0.894159    -0.100519
                              0.399488     0.450020
                              0.178482     0.605104
                              0.079741     0.190009
    2.1 Ag    1  1s           1.953783     1.000000
    3.1 Ag    1  1s           0.907234     1.000000
    4.1 Ag    1  1s           0.421272     1.000000
    5.1 Ag    1  1s           0.195616     1.000000
    6.1 Ag    1  1s           0.090834     1.000000
    7.1 Ag    1  1s           0.036334     1.000000
    8.1 Ag    1  3d0          1.616073     1.000000
    9.1 Ag    1  3d2+         1.616073     1.000000
   10.1 Ag    1  3d0          0.842642     1.000000
   11.1 Ag    1  3d2+         0.842642     1.000000
   12.1 Ag    1  3d0          0.439365     1.000000
   13.1 Ag    1  3d2+         0.439365     1.000000
   14.1 Ag    1  3d0          0.229091     1.000000
   15.1 Ag    1  3d2+         0.229091     1.000000
   16.1 Ag    1  3d0          0.119451     1.000000
   17.1 Ag    1  3d2+         0.119451     1.000000
   18.1 Ag    1  3d0          0.047780     1.000000
   19.1 Ag    1  3d2+         0.047780     1.000000
   20.1 Ag    1  5g0          1.057113     1.000000
   21.1 Ag    1  5g4+         1.057113     1.000000
   22.1 Ag    1  5g2+         1.057113     1.000000
   23.1 Ag    1  5g0          0.584832     1.000000
   24.1 Ag    1  5g4+         0.584832     1.000000
   25.1 Ag    1  5g2+         0.584832     1.000000
   26.1 Ag    1  5g0          0.323550     1.000000
   27.1 Ag    1  5g4+         0.323550     1.000000
   28.1 Ag    1  5g2+         0.323550     1.000000
   29.1 Ag    1  5g0          0.129420     1.000000
   30.1 Ag    1  5g4+         0.129420     1.000000
   31.1 Ag    1  5g2+         0.129420     1.000000
   32.1 Ag    1  7i6+         0.856850     1.000000
   33.1 Ag    1  7i4+         0.856850     1.000000
   34.1 Ag    1  7i2+         0.856850     1.000000
   35.1 Ag    1  7i0          0.856850     1.000000
   36.1 Ag    1  7i6+         0.342740     1.000000
   37.1 Ag    1  7i4+         0.342740     1.000000
   38.1 Ag    1  7i2+         0.342740     1.000000
   39.1 Ag    1  7i0          0.342740     1.000000
    1.2 B3u   1  2px         22.695464     0.000322
                             10.529662    -0.003120
                              4.885284     0.029849
                              2.266549    -0.127882
                              1.051576    -0.004461
                              0.487883     0.248666
                              0.226356     0.457083
                              0.105019     0.351483
                              0.048724     0.091636
    2.2 B3u   1  2px          1.016488     1.000000
    3.2 B3u   1  2px          0.494866     1.000000
    4.2 B3u   1  2px          0.240920     1.000000
    5.2 B3u   1  2px          0.117289     1.000000
    6.2 B3u   1  2px          0.057101     1.000000
    7.2 B3u   1  2px          0.022840     1.000000
    8.2 B3u   1  4f1+         0.925936     1.000000
    9.2 B3u   1  4f3+         0.925936     1.000000
   10.2 B3u   1  4f1+         0.548039     1.000000
   11.2 B3u   1  4f3+         0.548039     1.000000
   12.2 B3u   1  4f1+         0.324371     1.000000
   13.2 B3u   1  4f3+         0.324371     1.000000
   14.2 B3u   1  4f1+         0.191987     1.000000
   15.2 B3u   1  4f3+         0.191987     1.000000
   16.2 B3u   1  4f1+         0.076795     1.000000
   17.2 B3u   1  4f3+         0.076795     1.000000
   18.2 B3u   1  6h1+         0.993718     1.000000
   19.2 B3u   1  6h3+         0.993718     1.000000
   20.2 B3u   1  6h5+         0.993718     1.000000
   21.2 B3u   1  6h1+         0.523967     1.000000
   22.2 B3u   1  6h3+         0.523967     1.000000
   23.2 B3u   1  6h5+         0.523967     1.000000
   24.2 B3u   1  6h1+         0.209587     1.000000
   25.2 B3u   1  6h3+         0.209587     1.000000
   26.2 B3u   1  6h5+         0.209587     1.000000
    1.3 B2u   1  2py         22.695464     0.000322
                             10.529662    -0.003120
                              4.885284     0.029849
                              2.266549    -0.127882
                              1.051576    -0.004461
                              0.487883     0.248666
                              0.226356     0.457083
                              0.105019     0.351483
                              0.048724     0.091636
    2.3 B2u   1  2py          1.016488     1.000000
    3.3 B2u   1  2py          0.494866     1.000000
    4.3 B2u   1  2py          0.240920     1.000000
    5.3 B2u   1  2py          0.117289     1.000000
    6.3 B2u   1  2py          0.057101     1.000000
    7.3 B2u   1  2py          0.022840     1.000000
    8.3 B2u   1  4f1-         0.925936     1.000000
    9.3 B2u   1  4f3-         0.925936     1.000000
   10.3 B2u   1  4f1-         0.548039     1.000000
   11.3 B2u   1  4f3-         0.548039     1.000000
   12.3 B2u   1  4f1-         0.324371     1.000000
   13.3 B2u   1  4f3-         0.324371     1.000000
   14.3 B2u   1  4f1-         0.191987     1.000000
   15.3 B2u   1  4f3-         0.191987     1.000000
   16.3 B2u   1  4f1-         0.076795     1.000000
   17.3 B2u   1  4f3-         0.076795     1.000000
   18.3 B2u   1  6h1-         0.993718     1.000000
   19.3 B2u   1  6h3-         0.993718     1.000000
   20.3 B2u   1  6h5-         0.993718     1.000000
   21.3 B2u   1  6h1-         0.523967     1.000000
   22.3 B2u   1  6h3-         0.523967     1.000000
   23.3 B2u   1  6h5-         0.523967     1.000000
   24.3 B2u   1  6h1-         0.209587     1.000000
   25.3 B2u   1  6h3-         0.209587     1.000000
   26.3 B2u   1  6h5-         0.209587     1.000000
    1.4 B1g   1  3d2-         1.616073     1.000000
    2.4 B1g   1  3d2-         0.842642     1.000000
    3.4 B1g   1  3d2-         0.439365     1.000000
    4.4 B1g   1  3d2-         0.229091     1.000000
    5.4 B1g   1  3d2-         0.119451     1.000000
    6.4 B1g   1  3d2-         0.047780     1.000000
    7.4 B1g   1  5g2-         1.057113     1.000000
    8.4 B1g   1  5g4-         1.057113     1.000000
    9.4 B1g   1  5g2-         0.584832     1.000000
   10.4 B1g   1  5g4-         0.584832     1.000000
   11.4 B1g   1  5g2-         0.323550     1.000000
   12.4 B1g   1  5g4-         0.323550     1.000000
   13.4 B1g   1  5g2-         0.129420     1.000000
   14.4 B1g   1  5g4-         0.129420     1.000000
   15.4 B1g   1  7i2-         0.856850     1.000000
   16.4 B1g   1  7i6-         0.856850     1.000000
   17.4 B1g   1  7i4-         0.856850     1.000000
   18.4 B1g   1  7i2-         0.342740     1.000000
   19.4 B1g   1  7i6-         0.342740     1.000000
   20.4 B1g   1  7i4-         0.342740     1.000000
    1.5 B1u   1  2pz         22.695464     0.000322
                             10.529662    -0.003120
                              4.885284     0.029849
                              2.266549    -0.127882
                              1.051576    -0.004461
                              0.487883     0.248666
                              0.226356     0.457083
                              0.105019     0.351483
                              0.048724     0.091636
    2.5 B1u   1  2pz          1.016488     1.000000
    3.5 B1u   1  2pz          0.494866     1.000000
    4.5 B1u   1  2pz          0.240920     1.000000
    5.5 B1u   1  2pz          0.117289     1.000000
    6.5 B1u   1  2pz          0.057101     1.000000
    7.5 B1u   1  2pz          0.022840     1.000000
    8.5 B1u   1  4f0          0.925936     1.000000
    9.5 B1u   1  4f2+         0.925936     1.000000
   10.5 B1u   1  4f0          0.548039     1.000000
   11.5 B1u   1  4f2+         0.548039     1.000000
   12.5 B1u   1  4f0          0.324371     1.000000
   13.5 B1u   1  4f2+         0.324371     1.000000
   14.5 B1u   1  4f0          0.191987     1.000000
   15.5 B1u   1  4f2+         0.191987     1.000000
   16.5 B1u   1  4f0          0.076795     1.000000
   17.5 B1u   1  4f2+         0.076795     1.000000
   18.5 B1u   1  6h2+         0.993718     1.000000
   19.5 B1u   1  6h4+         0.993718     1.000000
   20.5 B1u   1  6h0          0.993718     1.000000
   21.5 B1u   1  6h2+         0.523967     1.000000
   22.5 B1u   1  6h4+         0.523967     1.000000
   23.5 B1u   1  6h0          0.523967     1.000000
   24.5 B1u   1  6h2+         0.209587     1.000000
   25.5 B1u   1  6h4+         0.209587     1.000000
   26.5 B1u   1  6h0          0.209587     1.000000
    1.6 B2g   1  3d1+         1.616073     1.000000
    2.6 B2g   1  3d1+         0.842642     1.000000
    3.6 B2g   1  3d1+         0.439365     1.000000
    4.6 B2g   1  3d1+         0.229091     1.000000
    5.6 B2g   1  3d1+         0.119451     1.000000
    6.6 B2g   1  3d1+         0.047780     1.000000
    7.6 B2g   1  5g1+         1.057113     1.000000
    8.6 B2g   1  5g3+         1.057113     1.000000
    9.6 B2g   1  5g1+         0.584832     1.000000
   10.6 B2g   1  5g3+         0.584832     1.000000
   11.6 B2g   1  5g1+         0.323550     1.000000
   12.6 B2g   1  5g3+         0.323550     1.000000
   13.6 B2g   1  5g1+         0.129420     1.000000
   14.6 B2g   1  5g3+         0.129420     1.000000
   15.6 B2g   1  7i5+         0.856850     1.000000
   16.6 B2g   1  7i3+         0.856850     1.000000
   17.6 B2g   1  7i1+         0.856850     1.000000
   18.6 B2g   1  7i5+         0.342740     1.000000
   19.6 B2g   1  7i3+         0.342740     1.000000
   20.6 B2g   1  7i1+         0.342740     1.000000
    1.7 B3g   1  3d1-         1.616073     1.000000
    2.7 B3g   1  3d1-         0.842642     1.000000
    3.7 B3g   1  3d1-         0.439365     1.000000
    4.7 B3g   1  3d1-         0.229091     1.000000
    5.7 B3g   1  3d1-         0.119451     1.000000
    6.7 B3g   1  3d1-         0.047780     1.000000
    7.7 B3g   1  5g1-         1.057113     1.000000
    8.7 B3g   1  5g3-         1.057113     1.000000
    9.7 B3g   1  5g1-         0.584832     1.000000
   10.7 B3g   1  5g3-         0.584832     1.000000
   11.7 B3g   1  5g1-         0.323550     1.000000
   12.7 B3g   1  5g3-         0.323550     1.000000
   13.7 B3g   1  5g1-         0.129420     1.000000
   14.7 B3g   1  5g3-         0.129420     1.000000
   15.7 B3g   1  7i5-         0.856850     1.000000
   16.7 B3g   1  7i3-         0.856850     1.000000
   17.7 B3g   1  7i1-         0.856850     1.000000
   18.7 B3g   1  7i5-         0.342740     1.000000
   19.7 B3g   1  7i3-         0.342740     1.000000
   20.7 B3g   1  7i1-         0.342740     1.000000
    1.8 Au    1  4f2-         0.925936     1.000000
    2.8 Au    1  4f2-         0.548039     1.000000
    3.8 Au    1  4f2-         0.324371     1.000000
    4.8 Au    1  4f2-         0.191987     1.000000
    5.8 Au    1  4f2-         0.076795     1.000000
    6.8 Au    1  6h4-         0.993718     1.000000
    7.8 Au    1  6h2-         0.993718     1.000000
    8.8 Au    1  6h4-         0.523967     1.000000
    9.8 Au    1  6h2-         0.523967     1.000000
   10.8 Au    1  6h4-         0.209587     1.000000
   11.8 Au    1  6h2-         0.209587     1.000000

 NUCLEAR CHARGE:                    5
 NUMBER OF PRIMITIVE AOS:         325
 NUMBER OF SYMMETRY AOS:          220
 NUMBER OF CONTRACTIONS:          188   (  39Ag  +  26B3u +  26B2u +  20B1g +  26B1u +  20B2g +  20B3g +  11Au  )
 NUMBER OF CORE ORBITALS:           0   (   0Ag  +   0B3u +   0B2u +   0B1g +   0B1u +   0B2g +   0B3g +   0Au  )
 NUMBER OF VALENCE ORBITALS:        4   (   1Ag  +   1B3u +   1B2u +   0B1g +   1B1u +   0B2g +   0B3g +   0Au  )


 NUCLEAR REPULSION ENERGY    0.00000000

 EXTRA SYMMETRY OF AOS IN SYMMETRY 1:   1 1 1 1 1 1 1 2 3 2   3 2 3 2 3 2 3 2 3 4   5 6 4 5 6 4 5 6 4 5   6 7 8 910 7 8 910
 EXTRA SYMMETRY OF AOS IN SYMMETRY 2:   1 1 1 1 1 1 1 2 3 2   3 2 3 2 3 2 3 4 5 6   4 5 6 4 5 6
 EXTRA SYMMETRY OF AOS IN SYMMETRY 3:   1 1 1 1 1 1 1 2 3 2   3 2 3 2 3 2 3 4 5 6   4 5 6 4 5 6
 EXTRA SYMMETRY OF AOS IN SYMMETRY 4:   1 1 1 1 1 1 2 3 2 3   2 3 2 3 4 5 6 4 5 6
 EXTRA SYMMETRY OF AOS IN SYMMETRY 5:   1 1 1 1 1 1 1 2 3 2   3 2 3 2 3 2 3 4 5 6   4 5 6 4 5 6
 EXTRA SYMMETRY OF AOS IN SYMMETRY 6:   1 1 1 1 1 1 2 3 2 3   2 3 2 3 4 5 6 4 5 6
 EXTRA SYMMETRY OF AOS IN SYMMETRY 7:   1 1 1 1 1 1 2 3 2 3   2 3 2 3 4 5 6 4 5 6
 EXTRA SYMMETRY OF AOS IN SYMMETRY 8:   1 1 1 1 1 2 3 2 3 2   3

 Eigenvalues of metric

         1 0.421E-03 0.233E-02 0.676E-02 0.676E-02 0.175E-01 0.478E-01 0.478E-01 0.478E-01
         2 0.581E-03 0.541E-02 0.726E-02 0.726E-02 0.354E-01 0.856E-01 0.856E-01 0.173E+00
         3 0.581E-03 0.541E-02 0.726E-02 0.726E-02 0.354E-01 0.856E-01 0.856E-01 0.173E+00
         4 0.676E-02 0.478E-01 0.478E-01 0.478E-01 0.222E+00 0.370E+00 0.370E+00 0.533E+00
         5 0.581E-03 0.541E-02 0.726E-02 0.726E-02 0.354E-01 0.856E-01 0.856E-01 0.173E+00
         6 0.676E-02 0.478E-01 0.478E-01 0.478E-01 0.222E+00 0.370E+00 0.370E+00 0.533E+00
         7 0.676E-02 0.478E-01 0.478E-01 0.478E-01 0.222E+00 0.370E+00 0.370E+00 0.533E+00
         8 0.726E-02 0.856E-01 0.186E+00 0.186E+00 0.469E+00 0.843E+00 0.843E+00 0.127E+01


 Contracted 2-electron integrals neglected if value below      1.0D-12
 AO integral compression algorithm  1   Integral accuracy      1.0D-12

     121.111 MB (compressed) written to integral file ( 47.6%)


 NUMBER OF SORTED TWO-ELECTRON INTEGRALS:   20212815.     BUFFER LENGTH:  32768
 NUMBER OF SEGMENTS:   2  SEGMENT LENGTH:   15998787      RECORD LENGTH: 524288

 Memory used in sort:      16.56 MW

 SORT1 READ    31710950. AND WROTE    13213985. INTEGRALS IN     39 RECORDS. CPU TIME:     0.75 SEC, REAL TIME:     1.02 SEC
 SORT2 READ    13213985. AND WROTE    20212815. INTEGRALS IN    462 RECORDS. CPU TIME:     0.59 SEC, REAL TIME:     1.00 SEC

 FILE SIZES:   FILE 1:   141.8 MBYTE,  FILE 4:   163.6 MBYTE,   TOTAL:    305.4 MBYTE

 OPERATOR DM      FOR CENTER  0  COORDINATES:    0.000000    0.000000    0.000000
 OPERATOR EKIN    FOR CENTER  0  COORDINATES:    0.000000    0.000000    0.000000
 OPERATOR POT     FOR CENTER  0  COORDINATES:    0.000000    0.000000    0.000000


 **********************************************************************************************************************************
 DATASETS  * FILE   NREC   LENGTH (MB)   RECORD NAMES
              1      20       98.73       500      610      700      900      950      970     1000      129      960     1100   
                                          VAR    BASINP    GEOM    SYMINP    ZMAT    AOBASIS   BASIS     P2S    ABASIS      S 
                                         1400     1410     1420     1200     1210     1080     1600     1650     1300     1700   
                                         EKIN       V       ECP      H0       H01     AOSYM     SMH    MOLCAS    ERIS     OPER   

 PROGRAMS   *        TOTAL       INT
 CPU TIMES  *         7.28      7.18
 REAL TIME  *        18.00 SEC
 DISK USED  *       305.76 MB      
 **********************************************************************************************************************************


 PROGRAM * RHF-SCF (OPEN SHELL)       Authors: W. Meyer, H.-J. Werner


 NUMBER OF ELECTRONS:       4+    1-    SPACE SYMMETRY=8    SPIN SYMMETRY: Quartet 
 CONVERGENCE THRESHOLDS:    1.00E-05 (Density)    1.00E-07 (Energy)
 MAX. NUMBER OF ITERATIONS:       60
 INTERPOLATION TYPE:            DIIS
 INTERPOLATION STEPS:              2 (START)      1 (STEP)
 LEVEL SHIFTS:                 -0.60 (CLOSED) -0.30 (OPEN) 

 Number of closed-shell orbitals:    1 (   1   0   0   0   0   0   0   0 )
 Number of open-shell orbitals:      3 (   0   1   1   0   1   0   0   0 )



   Atom=AS basis=ECP28MDF_GUESS    lmin=0  lmax=1

 Orbital guess generated from atomic densities. Full valence occupancy:    1   1   1   0   1   0   0   0


 Molecular orbital dump at record        2100.2

 ITERATION    DDIFF          GRAD             ENERGY        2-EL.EN.            DIPOLE MOMENTS         DIIS   ORB.
    1      0.000D+00      0.000D+00        -6.05199324      6.785441    0.00000    0.00000    0.00000    0    start
    2      0.000D+00      0.413D-02        -6.06249674      6.963262    0.00000    0.00000    0.00000    1    diag,B
    3      0.397D-02      0.180D-02        -6.06543560      7.062942    0.00000    0.00000    0.00000    2    diag,B
    4      0.218D-02      0.732D-03        -6.06586578      7.092686    0.00000    0.00000    0.00000    3    diag,B
    5      0.124D-02      0.153D-03        -6.06587751      7.092851    0.00000    0.00000    0.00000    4    diag,B
    6      0.267D-03      0.386D-04        -6.06587819      7.092982    0.00000    0.00000    0.00000    5    diag,B
    7      0.132D-03      0.564D-05        -6.06587820      7.092872    0.00000    0.00000    0.00000    6    fixocc
    8      0.174D-04      0.167D-05        -6.06587820      7.092861    0.00000    0.00000    0.00000    7    diag,B
    9      0.563D-05      0.339D-06        -6.06587820      7.092859    0.00000    0.00000    0.00000    0    orth

 Final alpha occupancy:   1   1   1   0   1   0   0   0
 Final beta  occupancy:   1   0   0   0   0   0   0   0

 !RHF STATE 1.8 Energy                 -6.065878198967
 Nuclear energy                         0.00000000
 One-electron energy                   -9.61230791
 Two-electron energy                    3.54642971
 Virial quotient                       -2.63826941
 !RHF STATE 1.8 Dipole moment           0.00000000     0.00000000     0.00000000
 Dipole moment /Debye                   0.00000000     0.00000000     0.00000000
 

 !RHF expec          <1.8|EKIN|1.8>     2.299188316786
 
 !RHF expec           <1.8|POT|1.8>    -2.512333342454

 ELECTRON ORBITALS
 =================


   Orb  Occ    Energy  Couls-En    Coefficients

                                   1 1s      1 1s      1 1s      1 1s      1 1s      1 1s      1 1s      1 3d0     1 3d2+    1 3d0  
                                   1 3d2+    1 3d0     1 3d2+    1 3d0     1 3d2+    1 3d0     1 3d2+    1 3d0     1 3d2+    1 5g0  
                                   1 5g4+    1 5g2+    1 5g0     1 5g4+    1 5g2+    1 5g0     1 5g4+    1 5g2+    1 5g0     1 5g4+ 
                                   1 5g2+    1 7i6+    1 7i4+    1 7i2+    1 7i0     1 7i6+    1 7i4+    1 7i2+    1 7i0  

   1.1   2    -0.7039   -2.9217  1.001414 -0.000282  0.002502 -0.005282  0.006251 -0.007197  0.003270  0.000000 -0.000000 -0.000000
                                 0.000000  0.000000 -0.000000 -0.000000  0.000000  0.000000  0.000000 -0.000000 -0.000000  0.000000
                                 0.000000  0.000000 -0.000000 -0.000000 -0.000000  0.000000  0.000000  0.000000 -0.000000 -0.000000
                                 0.000000 -0.000000 -0.000000  0.000000  0.000000 -0.000000 -0.000000  0.000000 -0.000000

                                   1 2px     1 2px     1 2px     1 2px     1 2px     1 2px     1 2px     1 4f1+    1 4f3+    1 4f1+ 
                                   1 4f3+    1 4f1+    1 4f3+    1 4f1+    1 4f3+    1 4f1+    1 4f3+    1 6h1+    1 6h3+    1 6h5+ 
                                   1 6h1+    1 6h3+    1 6h5+    1 6h1+    1 6h3+    1 6h5+ 

   1.2   +    -0.3706   -2.0961  0.999615 -0.000150  0.000437 -0.000544  0.001345 -0.001364  0.000941 -0.000000  0.000000  0.000000
                                -0.000000 -0.000000  0.000000  0.000000 -0.000000 -0.000000  0.000000 -0.000000  0.000000 -0.000000
                                -0.000000 -0.000000  0.000000 -0.000000  0.000000 -0.000000

                                   1 2py     1 2py     1 2py     1 2py     1 2py     1 2py     1 2py     1 4f1-    1 4f3-    1 4f1- 
                                   1 4f3-    1 4f1-    1 4f3-    1 4f1-    1 4f3-    1 4f1-    1 4f3-    1 6h1-    1 6h3-    1 6h5- 
                                   1 6h1-    1 6h3-    1 6h5-    1 6h1-    1 6h3-    1 6h5- 

   1.3   +    -0.3706   -2.0961  0.999615 -0.000150  0.000437 -0.000544  0.001345 -0.001364  0.000941 -0.000000 -0.000000  0.000000
                                 0.000000 -0.000000 -0.000000  0.000000  0.000000 -0.000000 -0.000000 -0.000000 -0.000000 -0.000000
                                -0.000000  0.000000  0.000000 -0.000000 -0.000000 -0.000000

                                   1 2pz     1 2pz     1 2pz     1 2pz     1 2pz     1 2pz     1 2pz     1 4f0     1 4f2+    1 4f0  
                                   1 4f2+    1 4f0     1 4f2+    1 4f0     1 4f2+    1 4f0     1 4f2+    1 6h2+    1 6h4+    1 6h0  
                                   1 6h2+    1 6h4+    1 6h0     1 6h2+    1 6h4+    1 6h0  

   1.5   +    -0.3706   -2.0961  0.999615 -0.000150  0.000437 -0.000544  0.001345 -0.001364  0.000941  0.000000  0.000000 -0.000000
                                -0.000000 -0.000000  0.000000  0.000000  0.000000 -0.000000 -0.000000  0.000000 -0.000000 -0.000000
                                -0.000000  0.000000 -0.000000  0.000000 -0.000000 -0.000000

 HOMO      1.2    -0.370551 =     -10.0832eV
 LUMO      2.2     0.054171 =       1.4741eV
 LUMO-HOMO         0.424722 =      11.5573eV


 **********************************************************************************************************************************
 DATASETS  * FILE   NREC   LENGTH (MB)   RECORD NAMES
              1      20       98.73       500      610      700      900      950      970     1000      129      960     1100   
                                          VAR    BASINP    GEOM    SYMINP    ZMAT    AOBASIS   BASIS     P2S    ABASIS      S 
                                         1400     1410     1420     1200     1210     1080     1600     1650     1300     1700   
                                         EKIN       V       ECP      H0       H01     AOSYM     SMH    MOLCAS    ERIS     OPER   

              2       4        2.92       700     1000      520     2100   
                                         GEOM     BASIS   MCVARS     RHF  

 PROGRAMS   *        TOTAL        HF       INT
 CPU TIMES  *         7.89      0.61      7.18
 REAL TIME  *        18.90 SEC
 DISK USED  *       305.76 MB      
 **********************************************************************************************************************************
 SETTING SCF(I)         =        -6.06587820  AU                              
 SETTING _CC_NORM_MAX   =         2.00000000                                  


 PROGRAM * CI (Multireference internally contracted CI)     Authors: H.-J. Werner, P.J. Knowles, 1987


 Convergence thresholds:  THRVAR = 1.00D-08  THRDEN = 1.00D-06

 Number of optimized states:  1  Roots:   1
 Number of reference states:  1  Roots:   1

 Reference symmetry:                   8   Quartet 
 Number of electrons:                  5
 Maximum number of shells:             2
 Maximum number of spin couplings:     4

 Reference space:        1 conf        1 CSFs
 N elec internal:        4 conf        4 CSFs
 N-1 el internal:       13 conf       16 CSFs
 N-2 el internal:        7 conf       19 CSFs

 Number of electrons in valence space:                      5
 Maximum number of open shell orbitals in reference space:  3
 Maximum number of open shell orbitals in internal spaces:  5


 Number of closed-shell orbitals:   1 (   1   0   0   0   0   0   0   0 )
 Number of active  orbitals:        3 (   0   1   1   0   1   0   0   0 )
 Number of external orbitals:     184 (  38  25  25  20  25  20  20  11 )

 Molecular orbitals read from record     2100.2  Type=RHF/CANONICAL (state 1.8)

 Integral transformation finished. Total CPU:   0.13 sec, npass=  1  Memory used:   0.14 MW

 Number of p-space configurations:   1

 Reference wavefunction optimized for reference space (refopt=1)

 State     Reference Energy 
   1          -6.06587820

 Number of blocks in overlap matrix:    10   Smallest eigenvalue:  0.10D+01
 Number of N-2 electron functions:      10
 Number of N-1 electron functions:      16

 Number of internal configurations:                    1
 Number of singly external configurations:           422
 Number of doubly external configurations:         21612
 Total number of contracted configurations:        22035
 Total number of uncontracted configurations:      41739

 Diagonal Coupling coefficients finished.               Storage:     902 words, CPU-Time:      0.00 seconds.
 Energy denominators for pairs finished in 1 passes.    Storage:   31043 words, CPU-time:      0.00 seconds.

  ITER. STATE  ROOT     SQ.NORM     CORR.ENERGY   TOTAL ENERGY   ENERGY CHANGE       DEN1      VAR(S)    VAR(P)      TIME
    1     1     1     1.00000000     0.00000000    -6.06587820     0.00000000    -0.10045443  0.34D-01  0.25D-01     0.13
    2     1     1     1.04979167    -0.09227677    -6.15815497    -0.09227677    -0.00120374  0.18D-03  0.35D-03     0.36
    3     1     1     1.05315977    -0.09357242    -6.15945062    -0.00129565    -0.00002668  0.25D-05  0.81D-05     0.59
    4     1     1     1.05315667    -0.09360041    -6.15947861    -0.00002798    -0.00000088  0.27D-06  0.21D-06     0.79
    5     1     1     1.05315364    -0.09360144    -6.15947964    -0.00000103    -0.00000005  0.30D-07  0.80D-08     1.01
    6     1     1     1.05317312    -0.09360150    -6.15947970    -0.00000006    -0.00000000  0.72D-09  0.50D-09     1.22


 =====================================
 Analysis of CPU times by interactions
 =====================================

       I      S      P

 I   0.0%
 S   0.0%   0.0%
 P   0.0%   0.0%   1.6%

 Initialization:  10.7%
 Other:           87.7%

 Total CPU:        1.2 seconds
 =====================================



 Reference coefficients greater than 0.0500000
 =============================================
 2///           0.9744288

 Coefficients of singly external configurations greater than 0.0500000
 =====================================================================

 //\/   6.1    -0.0501219



 RESULTS FOR STATE 1.8
 =====================

 Coefficient of reference function:   C(0) = 0.97442881 (fixed)   0.97442881 (relaxed)

 Energy contributions of configuration classes

 CLASS          SQ.NORM        ECORR1        ECORR2
 +++++++++++++++++++++++++++++++++++++++++++++++++++
 Internals    0.00000000    0.00000000    0.00000000
 Singles      0.02994751   -0.03890320   -0.03959910
 Pairs        0.02322561   -0.05469830   -0.05400241
 Total        1.05317312   -0.09360150   -0.09360150
 +++++++++++++++++++++++++++++++++++++++++++++++++++


 Reference energy                      -6.06587820
 Nuclear energy                         0.00000000
 Kinetic energy                         2.36837897
 One electron energy                   -9.55641123
 Two electron energy                    3.39693152
 Virial quotient                       -2.60071542
 Correlation energy                    -0.09360150
 !CI(SD) STATE 1.8 Energy              -6.159479702278

 Properties without orbital relaxation:

 !CI(SD) STATE 1.8 Dipole moment        0.00000000     0.00000000     0.00000000
 Dipole moment /Debye                   0.00000000     0.00000000     0.00000000

 Cluster corrected energies            -6.16445679 (Davidson, fixed reference)
 Cluster corrected energies            -6.16445679 (Davidson, relaxed reference)

 Cluster corrected energies            -6.15947970 (Pople, fixed reference)
 Cluster corrected energies            -6.15947970 (Pople, relaxed reference)

 

 !CI(SD) expec       <1.8|EKIN|1.8>     2.368378969188
 
 !CI(SD) expec        <1.8|POT|1.8>    -2.515799318844


 **********************************************************************************************************************************
 DATASETS  * FILE   NREC   LENGTH (MB)   RECORD NAMES
              1      21       99.39       500      610      700      900      950      970     1000      129      960     1100   
                                          VAR    BASINP    GEOM    SYMINP    ZMAT    AOBASIS   BASIS     P2S    ABASIS      S 
                                         1400     1410     1420     1200     1210     1080     1600     1650     1300     1700   
                                         EKIN       V       ECP      H0       H01     AOSYM     SMH    MOLCAS    ERIS     OPER   
                                         1380   
                                         JKOP   

              2       4        2.92       700     1000      520     2100   
                                         GEOM     BASIS   MCVARS     RHF  

 PROGRAMS   *        TOTAL        CI        HF       INT
 CPU TIMES  *         9.15      1.26      0.61      7.18
 REAL TIME  *        20.93 SEC
 DISK USED  *       305.76 MB      
 **********************************************************************************************************************************
 SETTING POSTHF(I)      =        -6.15947970  AU                              
                                                                                                                                                                                                                                                                

       SCF           POSTHF       EKIN          POT
    -6.06587820   -6.15947970   2.36837897   -2.51579932
                                                  

 CI/USERDEF energy=     -6.159479702278

        CI              HF-SCF  
     -6.15947970     -6.06587820
 **********************************************************************************************************************************
 Molpro calculation terminated
 Variable memory released
