----- GAMESS execution script 'rungms' -----
This job is running on host c455-002.stampede2.tacc.utexas.edu
under operating system Linux at Wed Jan 16 14:44:18 CST 2019
Available scratch disk space (Kbyte units) at beginning of the job is
Filesystem               1K-blocks  Used Available Use% Mounted on
/dev/mapper/rootvg01-tmp  33312880 45648  33267232   1% /tmp
GAMESS temporary binary files will be written to /tmp
GAMESS supplementary output files will be written to /work/04843/aannabe/stampede2/docs/accurate/sref_qmcpack/He_core/Na/TZ
Copying input file Na.inp to your run's scratch directory...

 Distributed Data Interface kickoff program.
 Initiating 1 compute processes on 1 nodes to run the following command:
 /work/04843/aannabe/stampede2/codes/gamess-mcb/gamess/gamess.00.x Na 

          ******************************************************
          *         GAMESS VERSION =  1 MAY 2013 (R1)          *
          *             FROM IOWA STATE UNIVERSITY             *
          * M.W.SCHMIDT, K.K.BALDRIDGE, J.A.BOATZ, S.T.ELBERT, *
          *   M.S.GORDON, J.H.JENSEN, S.KOSEKI, N.MATSUNAGA,   *
          *          K.A.NGUYEN, S.J.SU, T.L.WINDUS,           *
          *       TOGETHER WITH M.DUPUIS, J.A.MONTGOMERY       *
          *         J.COMPUT.CHEM.  14, 1347-1363(1993)        *
          **************** 64 BIT INTEL VERSION ****************

  SINCE 1993, STUDENTS AND POSTDOCS WORKING AT IOWA STATE UNIVERSITY
  AND ALSO IN THEIR VARIOUS JOBS AFTER LEAVING ISU HAVE MADE IMPORTANT
  CONTRIBUTIONS TO THE CODE:
     IVANA ADAMOVIC, CHRISTINE AIKENS, YURI ALEXEEV, POOJA ARORA,
     ANDREY ASADCHEV, ROB BELL, PRADIPTA BANDYOPADHYAY, JONATHAN BENTZ,
     BRETT BODE, GALINA CHABAN, WEI CHEN, CHEOL HO CHOI, PAUL DAY,
     ALBERT DEFUSCO, TIM DUDLEY, DMITRI FEDOROV, GRAHAM FLETCHER,
     MARK FREITAG, KURT GLAESEMANN, DAN KEMP, GRANT MERRILL,
     NORIYUKI MINEZAWA, JONATHAN MULLIN, TAKESHI NAGATA,
     SEAN NEDD, HEATHER NETZLOFF, BOSILJKA NJEGIC, RYAN OLSON, MIKE PAK,
     JIM SHOEMAKER, LYUDMILA SLIPCHENKO, SAROM SOK, JIE SONG,
     TETSUYA TAKETSUGU, SIMON WEBB, SOOHAENG YOO, FEDERICO ZAHARIEV

  ADDITIONAL CODE HAS BEEN PROVIDED BY COLLABORATORS IN OTHER GROUPS:
     IOWA STATE UNIVERSITY:
          JOE IVANIC, LAIMUTIS BYTAUTAS, KLAUS RUEDENBERG
     UNIVERSITY OF TOKYO: KIMIHIKO HIRAO, TAKAHITO NAKAJIMA,
          TAKAO TSUNEDA, MUNEAKI KAMIYA, SUSUMU YANAGISAWA,
          KIYOSHI YAGI, MAHITO CHIBA, SEIKEN TOKURA, NAOAKI KAWAKAMI
     UNIVERSITY OF AARHUS: FRANK JENSEN
     UNIVERSITY OF IOWA: VISVALDAS KAIRYS, HUI LI
     NATIONAL INST. OF STANDARDS AND TECHNOLOGY: WALT STEVENS, DAVID GARMER
     UNIVERSITY OF PISA: BENEDETTA MENNUCCI, JACOPO TOMASI
     UNIVERSITY OF MEMPHIS: HENRY KURTZ, PRAKASHAN KORAMBATH
     UNIVERSITY OF ALBERTA: TOBY ZENG, MARIUSZ KLOBUKOWSKI
     UNIVERSITY OF NEW ENGLAND: MARK SPACKMAN
     MIE UNIVERSITY: HIROAKI UMEDA
     MICHIGAN STATE UNIVERSITY:
          KAROL KOWALSKI, MARTA WLOCH, JEFFREY GOUR, JESSE LUTZ,
          WEI LI, PIOTR PIECUCH
     UNIVERSITY OF SILESIA: MONIKA MUSIAL, STANISLAW KUCHARSKI
     FACULTES UNIVERSITAIRES NOTRE-DAME DE LA PAIX:
          OLIVIER QUINET, BENOIT CHAMPAGNE
     UNIVERSITY OF CALIFORNIA - SANTA BARBARA: BERNARD KIRTMAN
     INSTITUTE FOR MOLECULAR SCIENCE:
          KAZUYA ISHIMURA, MICHIO KATOUDA, AND SHIGERU NAGASE
     UNIVERSITY OF NOTRE DAME: DAN CHIPMAN
     KYUSHU UNIVERSITY:
          HARUYUKI NAKANO,
          FENG LONG GU, JACEK KORCHOWIEC, MARCIN MAKOWSKI, AND YURIKO AOKI,
          HIROTOSHI MORI AND EISAKU MIYOSHI
     PENNSYLVANIA STATE UNIVERSITY:
          TZVETELIN IORDANOV, CHET SWALINA, JONATHAN SKONE,
          SHARON HAMMES-SCHIFFER
     WASEDA UNIVERSITY:
          MASATO KOBAYASHI, TOMOKO AKAMA, TSUGUKI TOUMA,
          TAKESHI YOSHIKAWA, YASUHIRO IKABATA, HIROMI NAKAI
     NANJING UNIVERSITY: SHUHUA LI
     UNIVERSITY OF NEBRASKA:
          PEIFENG SU, DEJUN SI, NANDUN THELLAMUREGE, YALI WANG, HUI LI
     UNIVERSITY OF ZURICH:
          ROBERTO PEVERATI, KIM BALDRIDGE
     N. COPERNICUS UNIVERSITY AND JACKSON STATE UNIVERSITY:
          MARIA BARYSZ

 EXECUTION OF GAMESS BEGUN Wed Jan 16 14:44:20 2019

            ECHO OF THE FIRST FEW INPUT CARDS -
 INPUT CARD> $CONTRL                                                                        
 INPUT CARD>     SCFTYP=ROHF                                                                
 INPUT CARD>     MULT=2                                                                     
 INPUT CARD>     ICHARG=0                                                                   
 INPUT CARD>     RUNTYP=ENERGY                                                              
 INPUT CARD>     MAXIT=150                                                                  
 INPUT CARD>     ECP=READ                                                                   
 INPUT CARD>     ISPHER=1                                                                   
 INPUT CARD> $END                                                                           
 INPUT CARD>                                                                                
 INPUT CARD> $SYSTEM                                                                        
 INPUT CARD>     KDIAG=3                                                                    
 INPUT CARD> $END                                                                           
 INPUT CARD>                                                                                
 INPUT CARD> $GUESS                                                                         
 INPUT CARD>    GUESS=HUCKEL                                                                
 INPUT CARD> $END                                                                           
 INPUT CARD>                                                                                
 INPUT CARD>                                                                                
 INPUT CARD> $DATA                                                                          
 INPUT CARD>                                                                                
 INPUT CARD>C1                                                                              
 INPUT CARD>Na 11    0. 0. 0.                                                               
 INPUT CARD>S   12                                                                          
 INPUT CARD>  1      50.364926   -0.00144900                                                
 INPUT CARD>  2      24.480199   -0.00059000                                                
 INPUT CARD>  3      11.898760   -0.11881800                                                
 INPUT CARD>  4       5.783470   -0.01085600                                                
 INPUT CARD>  5       2.811093    0.25078300                                                
 INPUT CARD>  6       1.366350    0.44727600                                                
 INPUT CARD>  7       0.664123    0.34725400                                                
 INPUT CARD>  8       0.322801    0.08065200                                                
 INPUT CARD>  9       0.156900    0.00120800                                                
 INPUT CARD> 10       0.076262    0.00040900                                                
 INPUT CARD> 11       0.037068    0.00011200                                                
 INPUT CARD> 12       0.018017    0.00007200                                                
 INPUT CARD>S   12                                                                          
 INPUT CARD>  1      50.364926    0.00021200                                                
 INPUT CARD>  2      24.480199    0.00037900                                                
 INPUT CARD>  3      11.898760    0.01958200                                                
 INPUT CARD>  4       5.783470    0.00062300                                                
 INPUT CARD>  5       2.811093   -0.04578100                                                
 INPUT CARD>  6       1.366350   -0.08872800                                                
 INPUT CARD>  7       0.664123   -0.11295200                                                
 INPUT CARD>  8       0.322801   -0.10839600                                                
 INPUT CARD>  9       0.156900    0.00990100                                                
 INPUT CARD> 10       0.076262    0.35541800                                                
 INPUT CARD> 11       0.037068    0.56145100                                                
 INPUT CARD> 12       0.018017    0.19899800                                                
 INPUT CARD>S   1                                                                           
    1000000 WORDS OF MEMORY AVAILABLE


     RUN TITLE
     ---------
                                                                                 

 THE POINT GROUP OF THE MOLECULE IS C1      
 THE ORDER OF THE PRINCIPAL AXIS IS     0

 ATOM      ATOMIC                      COORDINATES (BOHR)
           CHARGE         X                   Y                   Z
 NA         11.0     0.0000000000        0.0000000000        0.0000000000

          INTERNUCLEAR DISTANCES (ANGS.)
          ------------------------------

                1 NA    

   1 NA      0.0000000  

  * ... LESS THAN  3.000


     ATOMIC BASIS SET
     ----------------
 THE CONTRACTED PRIMITIVE FUNCTIONS HAVE BEEN UNNORMALIZED
 THE CONTRACTED BASIS FUNCTIONS ARE NOW NORMALIZED TO UNITY

  SHELL TYPE  PRIMITIVE        EXPONENT          CONTRACTION COEFFICIENT(S)

 NA        

      1   S       1            50.3649260   -0.001448998718
      1   S       2            24.4801990   -0.000589999478
      1   S       3            11.8987600   -0.118817894840
      1   S       4             5.7834700   -0.010855990392
      1   S       5             2.8110930    0.250782778045
      1   S       6             1.3663500    0.447275604139
      1   S       7             0.6641230    0.347253692663
      1   S       8             0.3228010    0.080651928619
      1   S       9             0.1569000    0.001207998931
      1   S      10             0.0762620    0.000408999638
      1   S      11             0.0370680    0.000111999901
      1   S      12             0.0180170    0.000071999936

      2   S      13            50.3649260    0.000212000195
      2   S      14            24.4801990    0.000379000348
      2   S      15            11.8987600    0.019582017967
      2   S      16             5.7834700    0.000623000572
      2   S      17             2.8110930   -0.045781042005
      2   S      18             1.3663500   -0.088728081410
      2   S      19             0.6641230   -0.112952103636
      2   S      20             0.3228010   -0.108396099456
      2   S      21             0.1569000    0.009901009084
      2   S      22             0.0762620    0.355418326105
      2   S      23             0.0370680    0.561451515145
      2   S      24             0.0180170    0.198998182585

      3   S      25             4.7630880    1.000000000000

      4   S      26             1.2765330    1.000000000000

      5   S      27             0.5212380    1.000000000000

      6   S      28             0.0672620    1.000000000000

      7   S      29             0.0336310    1.000000000000

      8   P      30            77.7699430    0.000054000017
      8   P      31            42.0608160   -0.000016000005
      8   P      32            22.7480200    0.012571003953
      8   P      33            12.3029570    0.079601025031
      8   P      34             6.6538870    0.140442044164
      8   P      35             3.5986640    0.212141066710
      8   P      36             1.9462890    0.261799082326
      8   P      37             1.0526240    0.255820080445
      8   P      38             0.5692970    0.180359056716
      8   P      39             0.3078970    0.072165022693
      8   P      40             0.1665220    0.010663003353
      8   P      41             0.0900610    0.001538000484

      9   P      42            77.7699430   -0.000656000124
      9   P      43            42.0608160    0.003137000592
      9   P      44            22.7480200   -0.011004002078
      9   P      45            12.3029570    0.009376001770
      9   P      46             6.6538870   -0.066479012552
      9   P      47             3.5986640    0.058959011132
      9   P      48             1.9462890   -0.221050041735
      9   P      49             1.0526240    0.303491057300
      9   P      50             0.5692970   -0.671705126821
      9   P      51             0.3078970    1.064360200955
      9   P      52             0.1665220   -1.530489288962
      9   P      53             0.0900610    1.843167347997

     10   P      54             1.8206100    1.000000000000

     11   P      55             0.6249980    1.000000000000

     12   P      56             0.0833960    1.000000000000

     13   P      57             0.0362360    1.000000000000

     14   P      58             0.0181180    1.000000000000

     15   D      59             7.2428600    1.000000000000

     16   D      60             2.3277600    1.000000000000

     17   D      61             0.6695220    1.000000000000

     18   D      62             0.0896040    1.000000000000

     19   D      63             0.0448020    1.000000000000

     20   F      64             3.4387540    1.000000000000

     21   F      65             0.1346920    1.000000000000

     22   F      66             0.0673460    1.000000000000

 TOTAL NUMBER OF BASIS SET SHELLS             =   22
 NUMBER OF CARTESIAN GAUSSIAN BASIS FUNCTIONS =   88
 NOTE: THIS RUN WILL RESTRICT THE MO VARIATION SPACE TO SPHERICAL HARMONICS.
 THE NUMBER OF ORBITALS KEPT IN THE VARIATIONAL SPACE WILL BE PRINTED LATER.
 NUMBER OF ELECTRONS                          =   11
 CHARGE OF MOLECULE                           =    0
 SPIN MULTIPLICITY                            =    2
 NUMBER OF OCCUPIED ORBITALS (ALPHA)          =    6
 NUMBER OF OCCUPIED ORBITALS (BETA )          =    5
 TOTAL NUMBER OF ATOMS                        =    1
 THE NUCLEAR REPULSION ENERGY IS        0.0000000000
 NOTE THIS RUN IS USING CORE POTENTIALS, AND THE NUMBER OF ELECTRONS,
 OCCUPIED ORBITALS, AND NUCLEAR REPULSION ENERGY WILL BE ADJUSTED BELOW
 AFTER REMOVAL OF THE CORE CHARGES.

 THIS MOLECULE IS RECOGNIZED AS BEING LINEAR,
 ORBITAL LZ DEGENERACY TOLERANCE ETOLLZ= 1.00E-06

     $CONTRL OPTIONS
     ---------------
 SCFTYP=ROHF         RUNTYP=ENERGY       EXETYP=RUN     
 MPLEVL=       0     CITYP =NONE         CCTYP =NONE         VBTYP =NONE    
 DFTTYP=NONE         TDDFT =NONE    
 MULT  =       2     ICHARG=       0     NZVAR =       0     COORD =UNIQUE  
 PP    =READ         RELWFN=NONE         LOCAL =NONE         NUMGRD=       F
 ISPHER=       1     NOSYM =       0     MAXIT =     150     UNITS =ANGS    
 PLTORB=       F     MOLPLT=       F     AIMPAC=       F     FRIEND=        
 NPRINT=       7     IREST =       0     GEOM  =INPUT   
 NORMF =       0     NORMP =       0     ITOL  =      20     ICUT  =       9
 INTTYP=BEST         GRDTYP=BEST         QMTTOL= 1.0E-06

     $SYSTEM OPTIONS
     ---------------
  REPLICATED MEMORY=     1000000 WORDS (ON EVERY NODE).
 DISTRIBUTED MEMDDI=           0 MILLION WORDS IN AGGREGATE,
 MEMDDI DISTRIBUTED OVER   1 PROCESSORS IS           0 WORDS/PROCESSOR.
 TOTAL MEMORY REQUESTED ON EACH PROCESSOR=     1000000 WORDS.
 TIMLIM=      525600.00 MINUTES, OR     365.0 DAYS.
 PARALL= F  BALTYP=  DLB     KDIAG=    3  COREFL= F
 MXSEQ2=     300 MXSEQ3=     150

          --------------
          ECP POTENTIALS
          --------------

 PARAMETERS FOR "NA-CCECP" ON ATOM    1 WITH ZCORE   2 AND LMAX  1 ARE
 FOR L= 1      COEFF    N           ZETA
    1        9.00000    1        8.99712
    2       80.97404    3        8.95824
    3      -57.11799    2        8.69129
 FOR L= 0      COEFF    N           ZETA
    1       25.19460    2       61.00436
    2       60.93358    2       14.82952

 THE ECP RUN REMOVES    2 CORE ELECTRONS, AND THE SAME NUMBER OF PROTONS.
 NUMBER OF ELECTRONS KEPT IN THE CALCULATION IS =    9
 NUMBER OF OCCUPIED ORBITALS (ALPHA) KEPT IS    =    5
 NUMBER OF OCCUPIED ORBITALS (BETA ) KEPT IS    =    4
 THE ADJUSTED NUCLEAR REPULSION ENERGY=        0.0000000000
          ECP ANGULAR INTS.........     0.01 SECONDS

          ----------------
          PROPERTIES INPUT
          ----------------

     MOMENTS            FIELD           POTENTIAL          DENSITY
 IEMOM =       1   IEFLD =       0   IEPOT =       0   IEDEN =       0
 WHERE =COMASS     WHERE =NUCLEI     WHERE =NUCLEI     WHERE =NUCLEI  
 OUTPUT=BOTH       OUTPUT=BOTH       OUTPUT=BOTH       OUTPUT=BOTH    
 IEMINT=       0   IEFINT=       0                     IEDINT=       0
                                                       MORB  =       0
          EXTRAPOLATION IN EFFECT
          SOSCF IN EFFECT
 ORBITAL PRINTING OPTION: NPREO=     1    88     2     1

     -------------------------------
     INTEGRAL TRANSFORMATION OPTIONS
     -------------------------------
     NWORD  =            0
     CUTOFF = 1.0E-09     MPTRAN =       0
     DIRTRF =       F     AOINTS =DUP     

          ----------------------
          INTEGRAL INPUT OPTIONS
          ----------------------
 NOPK  =       1 NORDER=       0 SCHWRZ=       F

     ------------------------------------------
     THE POINT GROUP IS C1 , NAXIS= 0, ORDER= 1
     ------------------------------------------

 -- VARIATIONAL SPACE WILL BE RESTRICTED TO PURE SPHERICAL HARMONICS ONLY --
 AFTER EXCLUDING CONTAMINANT COMBINATIONS FROM THE CARTESIAN GAUSSIAN BASIS
 SET, THE NUMBER OF SPHERICAL HARMONICS KEPT IN THE VARIATION SPACE IS   74

     DIMENSIONS OF THE SYMMETRY SUBSPACES ARE
 A   =   74

 ..... DONE SETTING UP THE RUN .....
 STEP CPU TIME =     0.13 TOTAL CPU TIME =        0.1 (    0.0 MIN)
 TOTAL WALL CLOCK TIME=        0.7 SECONDS, CPU UTILIZATION IS  20.00%

          ********************
          1 ELECTRON INTEGRALS
          ********************
 TIME TO DO ORDINARY INTEGRALS=      0.01
 TIME TO DO      ECP INTEGRALS=      0.00
 ...... END OF ONE-ELECTRON INTEGRALS ......
 STEP CPU TIME =     0.01 TOTAL CPU TIME =        0.1 (    0.0 MIN)
 TOTAL WALL CLOCK TIME=        0.9 SECONDS, CPU UTILIZATION IS  16.48%

          -------------
          GUESS OPTIONS
          -------------
          GUESS =HUCKEL            NORB  =       0          NORDER=       0
          MIX   =       F          PRTMO =       F          PUNMO =       F
          TOLZ  = 1.0E-08          TOLE  = 1.0E-05
          SYMDEN=       F          PURIFY=       F

 INITIAL GUESS ORBITALS GENERATED BY HUCKEL   ROUTINE.
 HUCKEL GUESS REQUIRES     56764 WORDS.

 STATISTICS FOR GENERATION OF SYMMETRY ORBITAL -Q- MATRIX
 NUMBER OF CARTESIAN ATOMIC ORBITALS=         88
 NUMBER OF SPHERICAL CONTAMINANTS DROPPED=    14
 NUMBER OF LINEARLY DEPENDENT MOS DROPPED=     0
 TOTAL NUMBER OF MOS IN VARIATION SPACE=      74

 SYMMETRIES FOR INITIAL GUESS ORBITALS FOLLOW.  ALPHA SET(S).
     5 ORBITALS ARE OCCUPIED (    4 CORE ORBITALS).
     5=A        6=A        7=A        8=A        9=A       10=A       11=A   
    12=A       13=A       14=A       15=A   

 SYMMETRIES FOR INITIAL GUESS ORBITALS FOLLOW.   BETA SET(S).
     4 ORBITALS ARE OCCUPIED (    4 CORE ORBITALS).
     5=A        6=A        7=A        8=A        9=A       10=A       11=A   
    12=A       13=A       14=A   
 ...... END OF INITIAL ORBITAL SELECTION ......
 STEP CPU TIME =     0.03 TOTAL CPU TIME =        0.2 (    0.0 MIN)
 TOTAL WALL CLOCK TIME=        1.1 SECONDS, CPU UTILIZATION IS  16.98%

                    ----------------------
                    AO INTEGRAL TECHNOLOGY
                    ----------------------
     S,P,L SHELL ROTATED AXIS INTEGRALS, REPROGRAMMED BY
        KAZUYA ISHIMURA (IMS) AND JOSE SIERRA (SYNSTAR).
     S,P,D,L SHELL ROTATED AXIS INTEGRALS PROGRAMMED BY
        KAZUYA ISHIMURA (INSTITUTE FOR MOLECULAR SCIENCE).
     S,P,D,F,G SHELL TO TOTAL QUARTET ANGULAR MOMENTUM SUM 5,
        ERIC PROGRAM BY GRAHAM FLETCHER (ELORET AND NASA ADVANCED
        SUPERCOMPUTING DIVISION, AMES RESEARCH CENTER).
     S,P,D,F,G,L SHELL GENERAL RYS QUADRATURE PROGRAMMED BY
        MICHEL DUPUIS (PACIFIC NORTHWEST NATIONAL LABORATORY).

          --------------------
          2 ELECTRON INTEGRALS
          --------------------

 THE -PK- OPTION IS OFF, THE INTEGRALS ARE NOT IN SUPERMATRIX FORM.
 STORING   15000 INTEGRALS/RECORD ON DISK, USING 12 BYTES/INTEGRAL.
 TWO ELECTRON INTEGRAL EVALUATION REQUIRES   99353 WORDS OF MEMORY.
 II,JST,KST,LST =  1  1  1  1 NREC =         1 INTLOC =    1
 II,JST,KST,LST =  2  1  1  1 NREC =         1 INTLOC =    2
 II,JST,KST,LST =  3  1  1  1 NREC =         1 INTLOC =    7
 II,JST,KST,LST =  4  1  1  1 NREC =         1 INTLOC =   22
 II,JST,KST,LST =  5  1  1  1 NREC =         1 INTLOC =   56
 II,JST,KST,LST =  6  1  1  1 NREC =         1 INTLOC =  121
 II,JST,KST,LST =  7  1  1  1 NREC =         1 INTLOC =  232
 II,JST,KST,LST =  8  1  1  1 NREC =         1 INTLOC =  407
 II,JST,KST,LST =  9  1  1  1 NREC =         1 INTLOC =  584
 II,JST,KST,LST = 10  1  1  1 NREC =         1 INTLOC = 1049
 II,JST,KST,LST = 11  1  1  1 NREC =         1 INTLOC = 1910
 II,JST,KST,LST = 12  1  1  1 NREC =         1 INTLOC = 3338
 II,JST,KST,LST = 13  1  1  1 NREC =         1 INTLOC = 5567
 II,JST,KST,LST = 14  1  1  1 NREC =         1 INTLOC = 8894
 II,JST,KST,LST = 15  1  1  1 NREC =         1 INTLOC =13679
 II,JST,KST,LST = 16  1  1  1 NREC =         2 INTLOC =11585
 II,JST,KST,LST = 17  1  1  1 NREC =         4 INTLOC = 3824
 II,JST,KST,LST = 18  1  1  1 NREC =         6 INTLOC = 8276
 II,JST,KST,LST = 19  1  1  1 NREC =         9 INTLOC =13829
 II,JST,KST,LST = 20  1  1  1 NREC =        14 INTLOC =10379
 II,JST,KST,LST = 21  1  1  1 NREC =        25 INTLOC =12089
 II,JST,KST,LST = 22  1  1  1 NREC =        43 INTLOC =  404
 TOTAL NUMBER OF NONZERO TWO-ELECTRON INTEGRALS =             1007923
         68 INTEGRAL RECORDS WERE STORED ON DISK FILE  8.
  ...... END OF TWO-ELECTRON INTEGRALS .....
 STEP CPU TIME =     2.92 TOTAL CPU TIME =        3.1 (    0.1 MIN)
 TOTAL WALL CLOCK TIME=        4.3 SECONDS, CPU UTILIZATION IS  72.26%

          ---------------------------
                 ROHF SCF CALCULATION
          ---------------------------

     NUCLEAR ENERGY =         0.0000000000
     MAXIT =150     NPUNCH=  2     MULT=  2
     EXTRAP=T  DAMP=F  SHIFT=F  RSTRCT=F  DIIS=F  SOSCF=T
     DENSITY MATRIX CONV=  1.00E-05
     ROHF CANONICALIZATION PARAMETERS
             C-C     O-O     V-V
     ALPHA -0.5000  0.5000  1.5000
     BETA   1.5000  0.5000 -0.5000
     SOSCF WILL OPTIMIZE     349 ORBITAL ROTATION ANGLES. SOGTOL= 2.500E-01
     MEMORY REQUIRED FOR UHF/ROHF ITERS=    103037 WORDS.

 ITER EX      TOTAL ENERGY        E CHANGE  DENSITY CHANGE    ORB. GRAD 
   1  0      -47.3066520758   -47.3066520758   1.267556373   0.000000000
          ---------------START SECOND ORDER SCF---------------
   2  1      -47.3552913443    -0.0486392685   0.627725911   0.033276344
   3  2      -47.3569701616    -0.0016788172   0.088048062   0.009193661
   4  3      -47.3571593800    -0.0001892184   0.008469312   0.000127120
   5  4      -47.3571594657    -0.0000000858   0.000274935   0.000019053
   6  5      -47.3571594677    -0.0000000020   0.000187560   0.000003272
   7  6      -47.3571594677    -0.0000000000   0.000030435   0.000000235
   8  7      -47.3571594677    -0.0000000000   0.000000066   0.000000027
   9  8      -47.3571594677    -0.0000000000   0.000000000   0.000000000

          -----------------
          DENSITY CONVERGED
          -----------------
     TIME TO FORM FOCK OPERATORS=       0.5 SECONDS (       0.1 SEC/ITER)
     TIME TO SOLVE SCF EQUATIONS=       0.0 SECONDS (       0.0 SEC/ITER)

 FINAL ROHF ENERGY IS      -47.3571594677 AFTER   9 ITERATIONS

          --------------------
          SPIN SZ   =    0.500
          S-SQUARED =    0.750
          --------------------

 LZ VALUE ANALYSIS FOR THE MOS
 ----------------------------------------
 MO     1 (    1) HAS LZ(WEIGHT)= 0.00(100.0%) 
 MO     2 (    2) HAS LZ(WEIGHT)=-1.00( 50.0%)  1.00( 50.0%) 
 MO     3 (    2) HAS LZ(WEIGHT)= 0.00(100.0%) 
 MO     4 (    2) HAS LZ(WEIGHT)=-1.00( 50.0%)  1.00( 50.0%) 
 MO     5 (    3) HAS LZ(WEIGHT)= 0.00(100.0%) 
 MO     6 (    4) HAS LZ(WEIGHT)=-1.00( 50.0%)  1.00( 50.0%) 
 MO     7 (    4) HAS LZ(WEIGHT)=-1.00( 50.0%)  1.00( 50.0%) 
 MO     8 (    4) HAS LZ(WEIGHT)= 0.00(100.0%) 
 MO     9 (    5) HAS LZ(WEIGHT)= 0.00(100.0%) 
 MO    10 (    6) HAS LZ(WEIGHT)=-1.00( 50.0%)  1.00( 50.0%) 
 MO    11 (    6) HAS LZ(WEIGHT)=-1.00( 50.0%)  1.00( 50.0%) 
 MO    12 (    6) HAS LZ(WEIGHT)= 0.00(100.0%) 
 MO    13 (    7) HAS LZ(WEIGHT)= 0.00(100.0%) 
 MO    14 (    7) HAS LZ(WEIGHT)=-2.00( 50.0%)  2.00( 50.0%) 
 MO    15 (    7) HAS LZ(WEIGHT)=-1.00( 50.0%)  1.00( 50.0%) 
 MO    16 (    7) HAS LZ(WEIGHT)=-2.00( 50.0%)  2.00( 50.0%) 
 MO    17 (    7) HAS LZ(WEIGHT)=-1.00( 50.0%)  1.00( 50.0%) 
 MO    18 (    8) HAS LZ(WEIGHT)= 0.00(100.0%) 
 MO    19 (    9) HAS LZ(WEIGHT)=-2.00( 50.0%)  2.00( 50.0%) 
 MO    20 (    9) HAS LZ(WEIGHT)=-2.00( 50.0%)  2.00( 50.0%) 
 MO    21 (    9) HAS LZ(WEIGHT)=-1.00( 50.0%)  1.00( 50.0%) 
 MO    22 (    9) HAS LZ(WEIGHT)=-1.00( 50.0%)  1.00( 50.0%) 
 MO    23 (    9) HAS LZ(WEIGHT)=-3.00( 50.0%)  3.00( 50.0%) 
 MO    24 (    9) HAS LZ(WEIGHT)=-3.00( 50.0%)  3.00( 50.0%) 
 MO    25 (    9) HAS LZ(WEIGHT)= 0.00(100.0%) 
 MO    26 (   10) HAS LZ(WEIGHT)=-1.00( 50.0%)  1.00( 50.0%) 
 MO    27 (   10) HAS LZ(WEIGHT)=-1.00( 50.0%)  1.00( 50.0%) 
 MO    28 (   10) HAS LZ(WEIGHT)= 0.00(100.0%) 
 MO    29 (   11) HAS LZ(WEIGHT)=-2.00( 50.0%)  2.00( 50.0%) 
 MO    30 (   11) HAS LZ(WEIGHT)=-1.00( 50.0%)  1.00( 50.0%) 
 MO    31 (   11) HAS LZ(WEIGHT)= 0.00(100.0%) 
 MO    32 (   11) HAS LZ(WEIGHT)=-1.00( 50.0%)  1.00( 50.0%) 
 MO    33 (   11) HAS LZ(WEIGHT)=-2.00( 50.0%)  2.00( 50.0%) 
 MO    34 (   12) HAS LZ(WEIGHT)=-2.00( 50.0%)  2.00( 50.0%) 
 MO    35 (   12) HAS LZ(WEIGHT)= 0.00(100.0%) 
 MO    36 (   12) HAS LZ(WEIGHT)=-1.00( 50.0%)  1.00( 50.0%) 
 MO    37 (   12) HAS LZ(WEIGHT)=-2.00( 50.0%)  2.00( 50.0%) 
 MO    38 (   12) HAS LZ(WEIGHT)=-1.00( 50.0%)  1.00( 50.0%) 
 MO    39 (   12) HAS LZ(WEIGHT)=-3.00( 50.0%)  3.00( 50.0%) 
 MO    40 (   12) HAS LZ(WEIGHT)=-3.00( 50.0%)  3.00( 50.0%) 
 MO    41 (   13) HAS LZ(WEIGHT)=-1.00( 50.0%)  1.00( 50.0%) 
 MO    42 (   13) HAS LZ(WEIGHT)=-1.00( 50.0%)  1.00( 50.0%) 
 MO    43 (   13) HAS LZ(WEIGHT)= 0.00(100.0%) 
 MO    44 (   14) HAS LZ(WEIGHT)= 0.00(100.0%) 
 MO    45 (   15) HAS LZ(WEIGHT)=-1.00( 50.0%)  1.00( 50.0%) 
 MO    46 (   15) HAS LZ(WEIGHT)=-1.00( 50.0%)  1.00( 50.0%) 
 MO    47 (   15) HAS LZ(WEIGHT)=-2.00( 50.0%)  2.00( 50.0%) 
 MO    48 (   15) HAS LZ(WEIGHT)=-2.00( 50.0%)  2.00( 50.0%) 
 MO    49 (   15) HAS LZ(WEIGHT)= 0.00(100.0%) 
 MO    50 (   16) HAS LZ(WEIGHT)=-1.00( 50.0%)  1.00( 50.0%) 
 MO    51 (   16) HAS LZ(WEIGHT)= 0.00(100.0%) 
 MO    52 (   16) HAS LZ(WEIGHT)=-1.00( 50.0%)  1.00( 50.0%) 
 MO    53 (   17) HAS LZ(WEIGHT)= 0.00(100.0%) 
 MO    54 (   17) HAS LZ(WEIGHT)=-2.00( 50.0%)  2.00( 50.0%) 
 MO    55 (   17) HAS LZ(WEIGHT)=-1.00( 50.0%)  1.00( 50.0%) 
 MO    56 (   17) HAS LZ(WEIGHT)=-1.00( 50.0%)  1.00( 50.0%) 
 MO    57 (   17) HAS LZ(WEIGHT)=-2.00( 50.0%)  2.00( 50.0%) 
 MO    58 (   18) HAS LZ(WEIGHT)= 0.00(100.0%) 
 MO    59 (   19) HAS LZ(WEIGHT)=-1.00( 50.0%)  1.00( 50.0%) 
 MO    60 (   19) HAS LZ(WEIGHT)=-1.00( 50.0%)  1.00( 50.0%) 
 MO    61 (   19) HAS LZ(WEIGHT)= 0.00(100.0%) 
 MO    62 (   20) HAS LZ(WEIGHT)=-2.00( 50.0%)  2.00( 50.0%) 
 MO    63 (   20) HAS LZ(WEIGHT)=-2.00( 50.0%)  2.00( 50.0%) 
 MO    64 (   20) HAS LZ(WEIGHT)=-1.00( 50.0%)  1.00( 50.0%) 
 MO    65 (   20) HAS LZ(WEIGHT)=-3.00( 50.0%)  3.00( 50.0%) 
 MO    66 (   20) HAS LZ(WEIGHT)=-3.00( 50.0%)  3.00( 50.0%) 
 MO    67 (   20) HAS LZ(WEIGHT)= 0.00(100.0%) 
 MO    68 (   20) HAS LZ(WEIGHT)=-1.00( 50.0%)  1.00( 50.0%) 
 MO    69 (   21) HAS LZ(WEIGHT)=-2.00( 50.0%)  2.00( 50.0%) 
 MO    70 (   21) HAS LZ(WEIGHT)= 0.00(100.0%) 
 MO    71 (   21) HAS LZ(WEIGHT)=-1.00( 50.0%)  1.00( 50.0%) 
 MO    72 (   21) HAS LZ(WEIGHT)=-2.00( 50.0%)  2.00( 50.0%) 
 MO    73 (   21) HAS LZ(WEIGHT)=-1.00( 50.0%)  1.00( 50.0%) 
 MO    74 (   22) HAS LZ(WEIGHT)= 0.00(100.0%) 

          ------------
          EIGENVECTORS
          ------------

                      1          2          3          4          5
                   -2.7598    -1.5264    -1.5264    -1.5264    -0.0745
                     A          A          A          A          A   
    1  NA 1  S    0.999996   0.000000   0.000000   0.000000   0.000031
    2  NA 1  S   -0.000027   0.000000   0.000000   0.000000   1.000261
    3  NA 1  S   -0.000001   0.000000   0.000000   0.000000   0.000002
    4  NA 1  S    0.000003   0.000000   0.000000   0.000000   0.000016
    5  NA 1  S   -0.000008   0.000000   0.000000   0.000000   0.000027
    6  NA 1  S    0.000010   0.000000   0.000000   0.000000  -0.000057
    7  NA 1  S    0.000020   0.000000   0.000000   0.000000  -0.000220
    8  NA 1  X    0.000000   0.000000   0.000000   0.999938   0.000000
    9  NA 1  Y    0.000000   0.999938   0.000000   0.000000   0.000000
   10  NA 1  Z    0.000000   0.000000   0.999938   0.000000   0.000000
   11  NA 1  X    0.000000   0.000000   0.000000  -0.000395   0.000000
   12  NA 1  Y    0.000000  -0.000395   0.000000   0.000000   0.000000
   13  NA 1  Z    0.000000   0.000000  -0.000395   0.000000   0.000000
   14  NA 1  X    0.000000   0.000000   0.000000   0.000002   0.000000
   15  NA 1  Y    0.000000   0.000002   0.000000   0.000000   0.000000
   16  NA 1  Z    0.000000   0.000000   0.000002   0.000000   0.000000
   17  NA 1  X    0.000000   0.000000   0.000000  -0.000009   0.000000
   18  NA 1  Y    0.000000  -0.000009   0.000000   0.000000   0.000000
   19  NA 1  Z    0.000000   0.000000  -0.000009   0.000000   0.000000
   20  NA 1  X    0.000000   0.000000   0.000000   0.000236   0.000000
   21  NA 1  Y    0.000000   0.000236   0.000000   0.000000   0.000000
   22  NA 1  Z    0.000000   0.000000   0.000236   0.000000   0.000000
   23  NA 1  X    0.000000   0.000000   0.000000   0.000207   0.000000
   24  NA 1  Y    0.000000   0.000207   0.000000   0.000000   0.000000
   25  NA 1  Z    0.000000   0.000000   0.000207   0.000000   0.000000
   26  NA 1  X    0.000000   0.000000   0.000000  -0.000011   0.000000
   27  NA 1  Y    0.000000  -0.000011   0.000000   0.000000   0.000000
   28  NA 1  Z    0.000000   0.000000  -0.000011   0.000000   0.000000
   29  NA 1 XX    0.000000   0.000000   0.000000   0.000000   0.000000
   30  NA 1 YY    0.000000   0.000000   0.000000   0.000000   0.000000
   31  NA 1 ZZ    0.000000   0.000000   0.000000   0.000000   0.000000
   32  NA 1 XY    0.000000   0.000000   0.000000   0.000000   0.000000
   33  NA 1 XZ    0.000000   0.000000   0.000000   0.000000   0.000000
   34  NA 1 YZ    0.000000   0.000000   0.000000   0.000000   0.000000
   35  NA 1 XX    0.000000   0.000000   0.000000   0.000000   0.000000
   36  NA 1 YY    0.000000   0.000000   0.000000   0.000000   0.000000
   37  NA 1 ZZ    0.000000   0.000000   0.000000   0.000000   0.000000
   38  NA 1 XY    0.000000   0.000000   0.000000   0.000000   0.000000
   39  NA 1 XZ    0.000000   0.000000   0.000000   0.000000   0.000000
   40  NA 1 YZ    0.000000   0.000000   0.000000   0.000000   0.000000
   41  NA 1 XX    0.000000   0.000000   0.000000   0.000000   0.000000
   42  NA 1 YY    0.000000   0.000000   0.000000   0.000000   0.000000
   43  NA 1 ZZ    0.000000   0.000000   0.000000   0.000000   0.000000
   44  NA 1 XY    0.000000   0.000000   0.000000   0.000000   0.000000
   45  NA 1 XZ    0.000000   0.000000   0.000000   0.000000   0.000000
   46  NA 1 YZ    0.000000   0.000000   0.000000   0.000000   0.000000
   47  NA 1 XX    0.000000   0.000000   0.000000   0.000000   0.000000
   48  NA 1 YY    0.000000   0.000000   0.000000   0.000000   0.000000
   49  NA 1 ZZ    0.000000   0.000000   0.000000   0.000000   0.000000
   50  NA 1 XY    0.000000   0.000000   0.000000   0.000000   0.000000
   51  NA 1 XZ    0.000000   0.000000   0.000000   0.000000   0.000000
   52  NA 1 YZ    0.000000   0.000000   0.000000   0.000000   0.000000
   53  NA 1 XX    0.000000   0.000000   0.000000   0.000000   0.000000
   54  NA 1 YY    0.000000   0.000000   0.000000   0.000000   0.000000
   55  NA 1 ZZ    0.000000   0.000000   0.000000   0.000000   0.000000
   56  NA 1 XY    0.000000   0.000000   0.000000   0.000000   0.000000
   57  NA 1 XZ    0.000000   0.000000   0.000000   0.000000   0.000000
   58  NA 1 YZ    0.000000   0.000000   0.000000   0.000000   0.000000
   59  NA 1 XXX   0.000000   0.000000   0.000000   0.000000   0.000000
   60  NA 1 YYY   0.000000   0.000000   0.000000   0.000000   0.000000
   61  NA 1 ZZZ   0.000000   0.000000   0.000000   0.000000   0.000000
   62  NA 1 XXY   0.000000   0.000000   0.000000   0.000000   0.000000
   63  NA 1 XXZ   0.000000   0.000000   0.000000   0.000000   0.000000
   64  NA 1 YYX   0.000000   0.000000   0.000000   0.000000   0.000000
   65  NA 1 YYZ   0.000000   0.000000   0.000000   0.000000   0.000000
   66  NA 1 ZZX   0.000000   0.000000   0.000000   0.000000   0.000000
   67  NA 1 ZZY   0.000000   0.000000   0.000000   0.000000   0.000000
   68  NA 1 XYZ   0.000000   0.000000   0.000000   0.000000   0.000000
   69  NA 1 XXX   0.000000   0.000000   0.000000   0.000000   0.000000
   70  NA 1 YYY   0.000000   0.000000   0.000000   0.000000   0.000000
   71  NA 1 ZZZ   0.000000   0.000000   0.000000   0.000000   0.000000
   72  NA 1 XXY   0.000000   0.000000   0.000000   0.000000   0.000000
   73  NA 1 XXZ   0.000000   0.000000   0.000000   0.000000   0.000000
   74  NA 1 YYX   0.000000   0.000000   0.000000   0.000000   0.000000
   75  NA 1 YYZ   0.000000   0.000000   0.000000   0.000000   0.000000
   76  NA 1 ZZX   0.000000   0.000000   0.000000   0.000000   0.000000
   77  NA 1 ZZY   0.000000   0.000000   0.000000   0.000000   0.000000
   78  NA 1 XYZ   0.000000   0.000000   0.000000   0.000000   0.000000
   79  NA 1 XXX   0.000000   0.000000   0.000000   0.000000   0.000000
   80  NA 1 YYY   0.000000   0.000000   0.000000   0.000000   0.000000
   81  NA 1 ZZZ   0.000000   0.000000   0.000000   0.000000   0.000000
   82  NA 1 XXY   0.000000   0.000000   0.000000   0.000000   0.000000
   83  NA 1 XXZ   0.000000   0.000000   0.000000   0.000000   0.000000
   84  NA 1 YYX   0.000000   0.000000   0.000000   0.000000   0.000000
   85  NA 1 YYZ   0.000000   0.000000   0.000000   0.000000   0.000000
   86  NA 1 ZZX   0.000000   0.000000   0.000000   0.000000   0.000000
   87  NA 1 ZZY   0.000000   0.000000   0.000000   0.000000   0.000000
   88  NA 1 XYZ   0.000000   0.000000   0.000000   0.000000   0.000000

                      6          7          8          9         10
                    0.0091     0.0091     0.0091     0.0504     0.0757
                     A          A          A          A          A   
    1  NA 1  S    0.000000   0.000000   0.000000   3.306667   0.000000
    2  NA 1  S    0.000000   0.000000   0.000000  18.457970   0.000000
    3  NA 1  S    0.000000   0.000000   0.000000   0.092722   0.000000
    4  NA 1  S    0.000000   0.000000   0.000000   0.154079   0.000000
    5  NA 1  S    0.000000   0.000000   0.000000   2.280530   0.000000
    6  NA 1  S    0.000000   0.000000   0.000000  -7.523166   0.000000
    7  NA 1  S    0.000000   0.000000   0.000000 -12.484725   0.000000
    8  NA 1  X   -0.054440   0.000000   0.000000   0.000000   0.000000
    9  NA 1  Y    0.000000  -0.054440   0.000000   0.000000  -0.194588
   10  NA 1  Z    0.000000   0.000000  -0.054440   0.000000   0.000000
   11  NA 1  X    0.139840   0.000000   0.000000   0.000000   0.000000
   12  NA 1  Y    0.000000   0.139840   0.000000   0.000000  -0.733901
   13  NA 1  Z    0.000000   0.000000   0.139840   0.000000   0.000000
   14  NA 1  X   -0.000160   0.000000   0.000000   0.000000   0.000000
   15  NA 1  Y    0.000000  -0.000160   0.000000   0.000000  -0.008681
   16  NA 1  Z    0.000000   0.000000  -0.000160   0.000000   0.000000
   17  NA 1  X   -0.006482   0.000000   0.000000   0.000000   0.000000
   18  NA 1  Y    0.000000  -0.006482   0.000000   0.000000  -0.003701
   19  NA 1  Z    0.000000   0.000000  -0.006482   0.000000   0.000000
   20  NA 1  X    0.163554   0.000000   0.000000   0.000000   0.000000
   21  NA 1  Y    0.000000   0.163554   0.000000   0.000000   0.244922
   22  NA 1  Z    0.000000   0.000000   0.163554   0.000000   0.000000
   23  NA 1  X   -0.168085   0.000000   0.000000   0.000000   0.000000
   24  NA 1  Y    0.000000  -0.168085   0.000000   0.000000   2.696682
   25  NA 1  Z    0.000000   0.000000  -0.168085   0.000000   0.000000
   26  NA 1  X    0.965695   0.000000   0.000000   0.000000   0.000000
   27  NA 1  Y    0.000000   0.965695   0.000000   0.000000  -2.137655
   28  NA 1  Z    0.000000   0.000000   0.965695   0.000000   0.000000
   29  NA 1 XX    0.000000   0.000000   0.000000   0.000000   0.000000
   30  NA 1 YY    0.000000   0.000000   0.000000   0.000000   0.000000
   31  NA 1 ZZ    0.000000   0.000000   0.000000   0.000000   0.000000
   32  NA 1 XY    0.000000   0.000000   0.000000   0.000000   0.000000
   33  NA 1 XZ    0.000000   0.000000   0.000000   0.000000   0.000000
   34  NA 1 YZ    0.000000   0.000000   0.000000   0.000000   0.000000
   35  NA 1 XX    0.000000   0.000000   0.000000   0.000000   0.000000
   36  NA 1 YY    0.000000   0.000000   0.000000   0.000000   0.000000
   37  NA 1 ZZ    0.000000   0.000000   0.000000   0.000000   0.000000
   38  NA 1 XY    0.000000   0.000000   0.000000   0.000000   0.000000
   39  NA 1 XZ    0.000000   0.000000   0.000000   0.000000   0.000000
   40  NA 1 YZ    0.000000   0.000000   0.000000   0.000000   0.000000
   41  NA 1 XX    0.000000   0.000000   0.000000   0.000000   0.000000
   42  NA 1 YY    0.000000   0.000000   0.000000   0.000000   0.000000
   43  NA 1 ZZ    0.000000   0.000000   0.000000   0.000000   0.000000
   44  NA 1 XY    0.000000   0.000000   0.000000   0.000000   0.000000
   45  NA 1 XZ    0.000000   0.000000   0.000000   0.000000   0.000000
   46  NA 1 YZ    0.000000   0.000000   0.000000   0.000000   0.000000
   47  NA 1 XX    0.000000   0.000000   0.000000   0.000000   0.000000
   48  NA 1 YY    0.000000   0.000000   0.000000   0.000000   0.000000
   49  NA 1 ZZ    0.000000   0.000000   0.000000   0.000000   0.000000
   50  NA 1 XY    0.000000   0.000000   0.000000   0.000000   0.000000
   51  NA 1 XZ    0.000000   0.000000   0.000000   0.000000   0.000000
   52  NA 1 YZ    0.000000   0.000000   0.000000   0.000000   0.000000
   53  NA 1 XX    0.000000   0.000000   0.000000   0.000000   0.000000
   54  NA 1 YY    0.000000   0.000000   0.000000   0.000000   0.000000
   55  NA 1 ZZ    0.000000   0.000000   0.000000   0.000000   0.000000
   56  NA 1 XY    0.000000   0.000000   0.000000   0.000000   0.000000
   57  NA 1 XZ    0.000000   0.000000   0.000000   0.000000   0.000000
   58  NA 1 YZ    0.000000   0.000000   0.000000   0.000000   0.000000
   59  NA 1 XXX   0.000000   0.000000   0.000000   0.000000   0.000000
   60  NA 1 YYY   0.000000   0.000000   0.000000   0.000000   0.000000
   61  NA 1 ZZZ   0.000000   0.000000   0.000000   0.000000   0.000000
   62  NA 1 XXY   0.000000   0.000000   0.000000   0.000000   0.000000
   63  NA 1 XXZ   0.000000   0.000000   0.000000   0.000000   0.000000
   64  NA 1 YYX   0.000000   0.000000   0.000000   0.000000   0.000000
   65  NA 1 YYZ   0.000000   0.000000   0.000000   0.000000   0.000000
   66  NA 1 ZZX   0.000000   0.000000   0.000000   0.000000   0.000000
   67  NA 1 ZZY   0.000000   0.000000   0.000000   0.000000   0.000000
   68  NA 1 XYZ   0.000000   0.000000   0.000000   0.000000   0.000000
   69  NA 1 XXX   0.000000   0.000000   0.000000   0.000000   0.000000
   70  NA 1 YYY   0.000000   0.000000   0.000000   0.000000   0.000000
   71  NA 1 ZZZ   0.000000   0.000000   0.000000   0.000000   0.000000
   72  NA 1 XXY   0.000000   0.000000   0.000000   0.000000   0.000000
   73  NA 1 XXZ   0.000000   0.000000   0.000000   0.000000   0.000000
   74  NA 1 YYX   0.000000   0.000000   0.000000   0.000000   0.000000
   75  NA 1 YYZ   0.000000   0.000000   0.000000   0.000000   0.000000
   76  NA 1 ZZX   0.000000   0.000000   0.000000   0.000000   0.000000
   77  NA 1 ZZY   0.000000   0.000000   0.000000   0.000000   0.000000
   78  NA 1 XYZ   0.000000   0.000000   0.000000   0.000000   0.000000
   79  NA 1 XXX   0.000000   0.000000   0.000000   0.000000   0.000000
   80  NA 1 YYY   0.000000   0.000000   0.000000   0.000000   0.000000
   81  NA 1 ZZZ   0.000000   0.000000   0.000000   0.000000   0.000000
   82  NA 1 XXY   0.000000   0.000000   0.000000   0.000000   0.000000
   83  NA 1 XXZ   0.000000   0.000000   0.000000   0.000000   0.000000
   84  NA 1 YYX   0.000000   0.000000   0.000000   0.000000   0.000000
   85  NA 1 YYZ   0.000000   0.000000   0.000000   0.000000   0.000000
   86  NA 1 ZZX   0.000000   0.000000   0.000000   0.000000   0.000000
   87  NA 1 ZZY   0.000000   0.000000   0.000000   0.000000   0.000000
   88  NA 1 XYZ   0.000000   0.000000   0.000000   0.000000   0.000000

                     11         12         13         14         15
                    0.0757     0.0757     0.1171     0.1171     0.1171
                     A          A          A          A          A   
    1  NA 1  S    0.000000   0.000000   0.000000   0.000000   0.000000
    2  NA 1  S    0.000000   0.000000   0.000000   0.000000   0.000000
    3  NA 1  S    0.000000   0.000000   0.000000   0.000000   0.000000
    4  NA 1  S    0.000000   0.000000   0.000000   0.000000   0.000000
    5  NA 1  S    0.000000   0.000000   0.000000   0.000000   0.000000
    6  NA 1  S    0.000000   0.000000   0.000000   0.000000   0.000000
    7  NA 1  S    0.000000   0.000000   0.000000   0.000000   0.000000
    8  NA 1  X   -0.194588   0.000000   0.000000   0.000000   0.000000
    9  NA 1  Y    0.000000   0.000000   0.000000   0.000000   0.000000
   10  NA 1  Z    0.000000  -0.194588   0.000000   0.000000   0.000000
   11  NA 1  X   -0.733901   0.000000   0.000000   0.000000   0.000000
   12  NA 1  Y    0.000000   0.000000   0.000000   0.000000   0.000000
   13  NA 1  Z    0.000000  -0.733901   0.000000   0.000000   0.000000
   14  NA 1  X   -0.008681   0.000000   0.000000   0.000000   0.000000
   15  NA 1  Y    0.000000   0.000000   0.000000   0.000000   0.000000
   16  NA 1  Z    0.000000  -0.008681   0.000000   0.000000   0.000000
   17  NA 1  X   -0.003701   0.000000   0.000000   0.000000   0.000000
   18  NA 1  Y    0.000000   0.000000   0.000000   0.000000   0.000000
   19  NA 1  Z    0.000000  -0.003701   0.000000   0.000000   0.000000
   20  NA 1  X    0.244922   0.000000   0.000000   0.000000   0.000000
   21  NA 1  Y    0.000000   0.000000   0.000000   0.000000   0.000000
   22  NA 1  Z    0.000000   0.244922   0.000000   0.000000   0.000000
   23  NA 1  X    2.696682   0.000000   0.000000   0.000000   0.000000
   24  NA 1  Y    0.000000   0.000000   0.000000   0.000000   0.000000
   25  NA 1  Z    0.000000   2.696682   0.000000   0.000000   0.000000
   26  NA 1  X   -2.137655   0.000000   0.000000   0.000000   0.000000
   27  NA 1  Y    0.000000   0.000000   0.000000   0.000000   0.000000
   28  NA 1  Z    0.000000  -2.137655   0.000000   0.000000   0.000000
   29  NA 1 XX    0.000000   0.000000  -0.000422   0.000731   0.000000
   30  NA 1 YY    0.000000   0.000000  -0.000422  -0.000731   0.000000
   31  NA 1 ZZ    0.000000   0.000000   0.000844   0.000000   0.000000
   32  NA 1 XY    0.000000   0.000000   0.000000   0.000000   0.000000
   33  NA 1 XZ    0.000000   0.000000   0.000000   0.000000   0.000000
   34  NA 1 YZ    0.000000   0.000000   0.000000   0.000000   0.000844
   35  NA 1 XX    0.000000   0.000000   0.000877  -0.001519   0.000000
   36  NA 1 YY    0.000000   0.000000   0.000877   0.001519   0.000000
   37  NA 1 ZZ    0.000000   0.000000  -0.001754   0.000000   0.000000
   38  NA 1 XY    0.000000   0.000000   0.000000   0.000000   0.000000
   39  NA 1 XZ    0.000000   0.000000   0.000000   0.000000   0.000000
   40  NA 1 YZ    0.000000   0.000000   0.000000   0.000000  -0.001754
   41  NA 1 XX    0.000000   0.000000  -0.008458   0.014650   0.000000
   42  NA 1 YY    0.000000   0.000000  -0.008458  -0.014650   0.000000
   43  NA 1 ZZ    0.000000   0.000000   0.016916   0.000000   0.000000
   44  NA 1 XY    0.000000   0.000000   0.000000   0.000000   0.000000
   45  NA 1 XZ    0.000000   0.000000   0.000000   0.000000   0.000000
   46  NA 1 YZ    0.000000   0.000000   0.000000   0.000000   0.016916
   47  NA 1 XX    0.000000   0.000000   0.145586  -0.252162   0.000000
   48  NA 1 YY    0.000000   0.000000   0.145586   0.252162   0.000000
   49  NA 1 ZZ    0.000000   0.000000  -0.291171   0.000000   0.000000
   50  NA 1 XY    0.000000   0.000000   0.000000   0.000000   0.000000
   51  NA 1 XZ    0.000000   0.000000   0.000000   0.000000   0.000000
   52  NA 1 YZ    0.000000   0.000000   0.000000   0.000000  -0.291171
   53  NA 1 XX    0.000000   0.000000  -0.610899   1.058108   0.000000
   54  NA 1 YY    0.000000   0.000000  -0.610899  -1.058108   0.000000
   55  NA 1 ZZ    0.000000   0.000000   1.221798   0.000000   0.000000
   56  NA 1 XY    0.000000   0.000000   0.000000   0.000000   0.000000
   57  NA 1 XZ    0.000000   0.000000   0.000000   0.000000   0.000000
   58  NA 1 YZ    0.000000   0.000000   0.000000   0.000000   1.221798
   59  NA 1 XXX   0.000000   0.000000   0.000000   0.000000   0.000000
   60  NA 1 YYY   0.000000   0.000000   0.000000   0.000000   0.000000
   61  NA 1 ZZZ   0.000000   0.000000   0.000000   0.000000   0.000000
   62  NA 1 XXY   0.000000   0.000000   0.000000   0.000000   0.000000
   63  NA 1 XXZ   0.000000   0.000000   0.000000   0.000000   0.000000
   64  NA 1 YYX   0.000000   0.000000   0.000000   0.000000   0.000000
   65  NA 1 YYZ   0.000000   0.000000   0.000000   0.000000   0.000000
   66  NA 1 ZZX   0.000000   0.000000   0.000000   0.000000   0.000000
   67  NA 1 ZZY   0.000000   0.000000   0.000000   0.000000   0.000000
   68  NA 1 XYZ   0.000000   0.000000   0.000000   0.000000   0.000000
   69  NA 1 XXX   0.000000   0.000000   0.000000   0.000000   0.000000
   70  NA 1 YYY   0.000000   0.000000   0.000000   0.000000   0.000000
   71  NA 1 ZZZ   0.000000   0.000000   0.000000   0.000000   0.000000
   72  NA 1 XXY   0.000000   0.000000   0.000000   0.000000   0.000000
   73  NA 1 XXZ   0.000000   0.000000   0.000000   0.000000   0.000000
   74  NA 1 YYX   0.000000   0.000000   0.000000   0.000000   0.000000
   75  NA 1 YYZ   0.000000   0.000000   0.000000   0.000000   0.000000
   76  NA 1 ZZX   0.000000   0.000000   0.000000   0.000000   0.000000
   77  NA 1 ZZY   0.000000   0.000000   0.000000   0.000000   0.000000
   78  NA 1 XYZ   0.000000   0.000000   0.000000   0.000000   0.000000
   79  NA 1 XXX   0.000000   0.000000   0.000000   0.000000   0.000000
   80  NA 1 YYY   0.000000   0.000000   0.000000   0.000000   0.000000
   81  NA 1 ZZZ   0.000000   0.000000   0.000000   0.000000   0.000000
   82  NA 1 XXY   0.000000   0.000000   0.000000   0.000000   0.000000
   83  NA 1 XXZ   0.000000   0.000000   0.000000   0.000000   0.000000
   84  NA 1 YYX   0.000000   0.000000   0.000000   0.000000   0.000000
   85  NA 1 YYZ   0.000000   0.000000   0.000000   0.000000   0.000000
   86  NA 1 ZZX   0.000000   0.000000   0.000000   0.000000   0.000000
   87  NA 1 ZZY   0.000000   0.000000   0.000000   0.000000   0.000000
   88  NA 1 XYZ   0.000000   0.000000   0.000000   0.000000   0.000000

                     16         17         18         19         20
                    0.1171     0.1171     0.2140     0.2562     0.2562
                     A          A          A          A          A   
    1  NA 1  S    0.000000   0.000000   2.890375   0.000000   0.000000
    2  NA 1  S    0.000000   0.000000  17.943583   0.000000   0.000000
    3  NA 1  S    0.000000   0.000000   0.068246   0.000000   0.000000
    4  NA 1  S    0.000000   0.000000   0.241920   0.000000   0.000000
    5  NA 1  S    0.000000   0.000000   1.817731   0.000000   0.000000
    6  NA 1  S    0.000000   0.000000  -3.371338   0.000000   0.000000
    7  NA 1  S    0.000000   0.000000 -15.682148   0.000000   0.000000
    8  NA 1  X    0.000000   0.000000   0.000000   0.000000   0.000000
    9  NA 1  Y    0.000000   0.000000   0.000000   0.000000   0.000000
   10  NA 1  Z    0.000000   0.000000   0.000000   0.000000   0.000000
   11  NA 1  X    0.000000   0.000000   0.000000   0.000000   0.000000
   12  NA 1  Y    0.000000   0.000000   0.000000   0.000000   0.000000
   13  NA 1  Z    0.000000   0.000000   0.000000   0.000000   0.000000
   14  NA 1  X    0.000000   0.000000   0.000000   0.000000   0.000000
   15  NA 1  Y    0.000000   0.000000   0.000000   0.000000   0.000000
   16  NA 1  Z    0.000000   0.000000   0.000000   0.000000   0.000000
   17  NA 1  X    0.000000   0.000000   0.000000   0.000000   0.000000
   18  NA 1  Y    0.000000   0.000000   0.000000   0.000000   0.000000
   19  NA 1  Z    0.000000   0.000000   0.000000   0.000000   0.000000
   20  NA 1  X    0.000000   0.000000   0.000000   0.000000   0.000000
   21  NA 1  Y    0.000000   0.000000   0.000000   0.000000   0.000000
   22  NA 1  Z    0.000000   0.000000   0.000000   0.000000   0.000000
   23  NA 1  X    0.000000   0.000000   0.000000   0.000000   0.000000
   24  NA 1  Y    0.000000   0.000000   0.000000   0.000000   0.000000
   25  NA 1  Z    0.000000   0.000000   0.000000   0.000000   0.000000
   26  NA 1  X    0.000000   0.000000   0.000000   0.000000   0.000000
   27  NA 1  Y    0.000000   0.000000   0.000000   0.000000   0.000000
   28  NA 1  Z    0.000000   0.000000   0.000000   0.000000   0.000000
   29  NA 1 XX    0.000000   0.000000   0.000000   0.000000   0.000000
   30  NA 1 YY    0.000000   0.000000   0.000000   0.000000   0.000000
   31  NA 1 ZZ    0.000000   0.000000   0.000000   0.000000   0.000000
   32  NA 1 XY    0.000844   0.000000   0.000000   0.000000   0.000000
   33  NA 1 XZ    0.000000   0.000844   0.000000   0.000000   0.000000
   34  NA 1 YZ    0.000000   0.000000   0.000000   0.000000   0.000000
   35  NA 1 XX    0.000000   0.000000   0.000000   0.000000   0.000000
   36  NA 1 YY    0.000000   0.000000   0.000000   0.000000   0.000000
   37  NA 1 ZZ    0.000000   0.000000   0.000000   0.000000   0.000000
   38  NA 1 XY   -0.001754   0.000000   0.000000   0.000000   0.000000
   39  NA 1 XZ    0.000000  -0.001754   0.000000   0.000000   0.000000
   40  NA 1 YZ    0.000000   0.000000   0.000000   0.000000   0.000000
   41  NA 1 XX    0.000000   0.000000   0.000000   0.000000   0.000000
   42  NA 1 YY    0.000000   0.000000   0.000000   0.000000   0.000000
   43  NA 1 ZZ    0.000000   0.000000   0.000000   0.000000   0.000000
   44  NA 1 XY    0.016916   0.000000   0.000000   0.000000   0.000000
   45  NA 1 XZ    0.000000   0.016916   0.000000   0.000000   0.000000
   46  NA 1 YZ    0.000000   0.000000   0.000000   0.000000   0.000000
   47  NA 1 XX    0.000000   0.000000   0.000000   0.000000   0.000000
   48  NA 1 YY    0.000000   0.000000   0.000000   0.000000   0.000000
   49  NA 1 ZZ    0.000000   0.000000   0.000000   0.000000   0.000000
   50  NA 1 XY   -0.291171   0.000000   0.000000   0.000000   0.000000
   51  NA 1 XZ    0.000000  -0.291171   0.000000   0.000000   0.000000
   52  NA 1 YZ    0.000000   0.000000   0.000000   0.000000   0.000000
   53  NA 1 XX    0.000000   0.000000   0.000000   0.000000   0.000000
   54  NA 1 YY    0.000000   0.000000   0.000000   0.000000   0.000000
   55  NA 1 ZZ    0.000000   0.000000   0.000000   0.000000   0.000000
   56  NA 1 XY    1.221798   0.000000   0.000000   0.000000   0.000000
   57  NA 1 XZ    0.000000   1.221798   0.000000   0.000000   0.000000
   58  NA 1 YZ    0.000000   0.000000   0.000000   0.000000   0.000000
   59  NA 1 XXX   0.000000   0.000000   0.000000   0.000000   0.000000
   60  NA 1 YYY   0.000000   0.000000   0.000000   0.000000   0.000000
   61  NA 1 ZZZ   0.000000   0.000000   0.000000   0.000000   0.000000
   62  NA 1 XXY   0.000000   0.000000   0.000000   0.000000   0.000000
   63  NA 1 XXZ   0.000000   0.000000   0.000000   0.000000   0.000116
   64  NA 1 YYX   0.000000   0.000000   0.000000   0.000000   0.000000
   65  NA 1 YYZ   0.000000   0.000000   0.000000   0.000000  -0.000116
   66  NA 1 ZZX   0.000000   0.000000   0.000000   0.000000   0.000000
   67  NA 1 ZZY   0.000000   0.000000   0.000000   0.000000   0.000000
   68  NA 1 XYZ   0.000000   0.000000   0.000000   0.000134   0.000000
   69  NA 1 XXX   0.000000   0.000000   0.000000   0.000000   0.000000
   70  NA 1 YYY   0.000000   0.000000   0.000000   0.000000   0.000000
   71  NA 1 ZZZ   0.000000   0.000000   0.000000   0.000000   0.000000
   72  NA 1 XXY   0.000000   0.000000   0.000000   0.000000   0.000000
   73  NA 1 XXZ   0.000000   0.000000   0.000000   0.000000  -0.290020
   74  NA 1 YYX   0.000000   0.000000   0.000000   0.000000   0.000000
   75  NA 1 YYZ   0.000000   0.000000   0.000000   0.000000   0.290020
   76  NA 1 ZZX   0.000000   0.000000   0.000000   0.000000   0.000000
   77  NA 1 ZZY   0.000000   0.000000   0.000000   0.000000   0.000000
   78  NA 1 XYZ   0.000000   0.000000   0.000000  -0.334887   0.000000
   79  NA 1 XXX   0.000000   0.000000   0.000000   0.000000   0.000000
   80  NA 1 YYY   0.000000   0.000000   0.000000   0.000000   0.000000
   81  NA 1 ZZZ   0.000000   0.000000   0.000000   0.000000   0.000000
   82  NA 1 XXY   0.000000   0.000000   0.000000   0.000000   0.000000
   83  NA 1 XXZ   0.000000   0.000000   0.000000   0.000000   1.068313
   84  NA 1 YYX   0.000000   0.000000   0.000000   0.000000   0.000000
   85  NA 1 YYZ   0.000000   0.000000   0.000000   0.000000  -1.068313
   86  NA 1 ZZX   0.000000   0.000000   0.000000   0.000000   0.000000
   87  NA 1 ZZY   0.000000   0.000000   0.000000   0.000000   0.000000
   88  NA 1 XYZ   0.000000   0.000000   0.000000   1.233582   0.000000

                     21         22         23         24         25
                    0.2562     0.2562     0.2562     0.2562     0.2562
                     A          A          A          A          A   
    1  NA 1  S    0.000000   0.000000   0.000000   0.000000   0.000000
    2  NA 1  S    0.000000   0.000000   0.000000   0.000000   0.000000
    3  NA 1  S    0.000000   0.000000   0.000000   0.000000   0.000000
    4  NA 1  S    0.000000   0.000000   0.000000   0.000000   0.000000
    5  NA 1  S    0.000000   0.000000   0.000000   0.000000   0.000000
    6  NA 1  S    0.000000   0.000000   0.000000   0.000000   0.000000
    7  NA 1  S    0.000000   0.000000   0.000000   0.000000   0.000000
    8  NA 1  X    0.000000   0.000000   0.000000   0.000000   0.000000
    9  NA 1  Y    0.000000   0.000000   0.000000   0.000000   0.000000
   10  NA 1  Z    0.000000   0.000000   0.000000   0.000000   0.000000
   11  NA 1  X    0.000000   0.000000   0.000000   0.000000   0.000000
   12  NA 1  Y    0.000000   0.000000   0.000000   0.000000   0.000000
   13  NA 1  Z    0.000000   0.000000   0.000000   0.000000   0.000000
   14  NA 1  X    0.000000   0.000000   0.000000   0.000000   0.000000
   15  NA 1  Y    0.000000   0.000000   0.000000   0.000000   0.000000
   16  NA 1  Z    0.000000   0.000000   0.000000   0.000000   0.000000
   17  NA 1  X    0.000000   0.000000   0.000000   0.000000   0.000000
   18  NA 1  Y    0.000000   0.000000   0.000000   0.000000   0.000000
   19  NA 1  Z    0.000000   0.000000   0.000000   0.000000   0.000000
   20  NA 1  X    0.000000   0.000000   0.000000   0.000000   0.000000
   21  NA 1  Y    0.000000   0.000000   0.000000   0.000000   0.000000
   22  NA 1  Z    0.000000   0.000000   0.000000   0.000000   0.000000
   23  NA 1  X    0.000000   0.000000   0.000000   0.000000   0.000000
   24  NA 1  Y    0.000000   0.000000   0.000000   0.000000   0.000000
   25  NA 1  Z    0.000000   0.000000   0.000000   0.000000   0.000000
   26  NA 1  X    0.000000   0.000000   0.000000   0.000000   0.000000
   27  NA 1  Y    0.000000   0.000000   0.000000   0.000000   0.000000
   28  NA 1  Z    0.000000   0.000000   0.000000   0.000000   0.000000
   29  NA 1 XX    0.000000   0.000000   0.000000   0.000000   0.000000
   30  NA 1 YY    0.000000   0.000000   0.000000   0.000000   0.000000
   31  NA 1 ZZ    0.000000   0.000000   0.000000   0.000000   0.000000
   32  NA 1 XY    0.000000   0.000000   0.000000   0.000000   0.000000
   33  NA 1 XZ    0.000000   0.000000   0.000000   0.000000   0.000000
   34  NA 1 YZ    0.000000   0.000000   0.000000   0.000000   0.000000
   35  NA 1 XX    0.000000   0.000000   0.000000   0.000000   0.000000
   36  NA 1 YY    0.000000   0.000000   0.000000   0.000000   0.000000
   37  NA 1 ZZ    0.000000   0.000000   0.000000   0.000000   0.000000
   38  NA 1 XY    0.000000   0.000000   0.000000   0.000000   0.000000
   39  NA 1 XZ    0.000000   0.000000   0.000000   0.000000   0.000000
   40  NA 1 YZ    0.000000   0.000000   0.000000   0.000000   0.000000
   41  NA 1 XX    0.000000   0.000000   0.000000   0.000000   0.000000
   42  NA 1 YY    0.000000   0.000000   0.000000   0.000000   0.000000
   43  NA 1 ZZ    0.000000   0.000000   0.000000   0.000000   0.000000
   44  NA 1 XY    0.000000   0.000000   0.000000   0.000000   0.000000
   45  NA 1 XZ    0.000000   0.000000   0.000000   0.000000   0.000000
   46  NA 1 YZ    0.000000   0.000000   0.000000   0.000000   0.000000
   47  NA 1 XX    0.000000   0.000000   0.000000   0.000000   0.000000
   48  NA 1 YY    0.000000   0.000000   0.000000   0.000000   0.000000
   49  NA 1 ZZ    0.000000   0.000000   0.000000   0.000000   0.000000
   50  NA 1 XY    0.000000   0.000000   0.000000   0.000000   0.000000
   51  NA 1 XZ    0.000000   0.000000   0.000000   0.000000   0.000000
   52  NA 1 YZ    0.000000   0.000000   0.000000   0.000000   0.000000
   53  NA 1 XX    0.000000   0.000000   0.000000   0.000000   0.000000
   54  NA 1 YY    0.000000   0.000000   0.000000   0.000000   0.000000
   55  NA 1 ZZ    0.000000   0.000000   0.000000   0.000000   0.000000
   56  NA 1 XY    0.000000   0.000000   0.000000   0.000000   0.000000
   57  NA 1 XZ    0.000000   0.000000   0.000000   0.000000   0.000000
   58  NA 1 YZ    0.000000   0.000000   0.000000   0.000000   0.000000
   59  NA 1 XXX   0.000000  -0.000082  -0.000106   0.000000   0.000000
   60  NA 1 YYY  -0.000082   0.000000   0.000000  -0.000106   0.000000
   61  NA 1 ZZZ   0.000000   0.000000   0.000000   0.000000   0.000134
   62  NA 1 XXY  -0.000037   0.000000   0.000000   0.000142   0.000000
   63  NA 1 XXZ   0.000000   0.000000   0.000000   0.000000  -0.000090
   64  NA 1 YYX   0.000000  -0.000037   0.000142   0.000000   0.000000
   65  NA 1 YYZ   0.000000   0.000000   0.000000   0.000000  -0.000090
   66  NA 1 ZZX   0.000000   0.000147   0.000000   0.000000   0.000000
   67  NA 1 ZZY   0.000147   0.000000   0.000000   0.000000   0.000000
   68  NA 1 XYZ   0.000000   0.000000   0.000000   0.000000   0.000000
   69  NA 1 XXX   0.000000   0.205075   0.264751   0.000000   0.000000
   70  NA 1 YYY   0.205075   0.000000   0.000000   0.264751   0.000000
   71  NA 1 ZZZ   0.000000   0.000000   0.000000   0.000000  -0.334887
   72  NA 1 XXY   0.091712   0.000000   0.000000  -0.355201   0.000000
   73  NA 1 XXZ   0.000000   0.000000   0.000000   0.000000   0.224649
   74  NA 1 YYX   0.000000   0.091712  -0.355201   0.000000   0.000000
   75  NA 1 YYZ   0.000000   0.000000   0.000000   0.000000   0.224649
   76  NA 1 ZZX   0.000000  -0.366850   0.000000   0.000000   0.000000
   77  NA 1 ZZY  -0.366850   0.000000   0.000000   0.000000   0.000000
   78  NA 1 XYZ   0.000000   0.000000   0.000000   0.000000   0.000000
   79  NA 1 XXX   0.000000  -0.755412  -0.975232   0.000000   0.000000
   80  NA 1 YYY  -0.755412   0.000000   0.000000  -0.975232   0.000000
   81  NA 1 ZZZ   0.000000   0.000000   0.000000   0.000000   1.233582
   82  NA 1 XXY  -0.337830   0.000000   0.000000   1.308411   0.000000
   83  NA 1 XXZ   0.000000   0.000000   0.000000   0.000000  -0.827512
   84  NA 1 YYX   0.000000  -0.337830   1.308411   0.000000   0.000000
   85  NA 1 YYZ   0.000000   0.000000   0.000000   0.000000  -0.827512
   86  NA 1 ZZX   0.000000   1.351321   0.000000   0.000000   0.000000
   87  NA 1 ZZY   1.351321   0.000000   0.000000   0.000000   0.000000
   88  NA 1 XYZ   0.000000   0.000000   0.000000   0.000000   0.000000

                     26         27         28         29         30
                    0.2577     0.2577     0.2577     0.3498     0.3498
                     A          A          A          A          A   
    1  NA 1  S    0.000000   0.000000   0.000000   0.000000   0.000000
    2  NA 1  S    0.000000   0.000000   0.000000   0.000000   0.000000
    3  NA 1  S    0.000000   0.000000   0.000000   0.000000   0.000000
    4  NA 1  S    0.000000   0.000000   0.000000   0.000000   0.000000
    5  NA 1  S    0.000000   0.000000   0.000000   0.000000   0.000000
    6  NA 1  S    0.000000   0.000000   0.000000   0.000000   0.000000
    7  NA 1  S    0.000000   0.000000   0.000000   0.000000   0.000000
    8  NA 1  X    0.000000  -0.142819   0.000000   0.000000   0.000000
    9  NA 1  Y   -0.142819   0.000000   0.000000   0.000000   0.000000
   10  NA 1  Z    0.000000   0.000000  -0.142819   0.000000   0.000000
   11  NA 1  X    0.000000  -2.136308   0.000000   0.000000   0.000000
   12  NA 1  Y   -2.136308   0.000000   0.000000   0.000000   0.000000
   13  NA 1  Z    0.000000   0.000000  -2.136308   0.000000   0.000000
   14  NA 1  X    0.000000  -0.015979   0.000000   0.000000   0.000000
   15  NA 1  Y   -0.015979   0.000000   0.000000   0.000000   0.000000
   16  NA 1  Z    0.000000   0.000000  -0.015979   0.000000   0.000000
   17  NA 1  X    0.000000   0.025360   0.000000   0.000000   0.000000
   18  NA 1  Y    0.025360   0.000000   0.000000   0.000000   0.000000
   19  NA 1  Z    0.000000   0.000000   0.025360   0.000000   0.000000
   20  NA 1  X    0.000000  -0.675126   0.000000   0.000000   0.000000
   21  NA 1  Y   -0.675126   0.000000   0.000000   0.000000   0.000000
   22  NA 1  Z    0.000000   0.000000  -0.675126   0.000000   0.000000
   23  NA 1  X    0.000000   3.874472   0.000000   0.000000   0.000000
   24  NA 1  Y    3.874472   0.000000   0.000000   0.000000   0.000000
   25  NA 1  Z    0.000000   0.000000   3.874472   0.000000   0.000000
   26  NA 1  X    0.000000  -1.619518   0.000000   0.000000   0.000000
   27  NA 1  Y   -1.619518   0.000000   0.000000   0.000000   0.000000
   28  NA 1  Z    0.000000   0.000000  -1.619518   0.000000   0.000000
   29  NA 1 XX    0.000000   0.000000   0.000000   0.001039   0.000000
   30  NA 1 YY    0.000000   0.000000   0.000000  -0.001039   0.000000
   31  NA 1 ZZ    0.000000   0.000000   0.000000   0.000000   0.000000
   32  NA 1 XY    0.000000   0.000000   0.000000   0.000000   0.000000
   33  NA 1 XZ    0.000000   0.000000   0.000000   0.000000   0.000000
   34  NA 1 YZ    0.000000   0.000000   0.000000   0.000000   0.001200
   35  NA 1 XX    0.000000   0.000000   0.000000   0.007950   0.000000
   36  NA 1 YY    0.000000   0.000000   0.000000  -0.007950   0.000000
   37  NA 1 ZZ    0.000000   0.000000   0.000000   0.000000   0.000000
   38  NA 1 XY    0.000000   0.000000   0.000000   0.000000   0.000000
   39  NA 1 XZ    0.000000   0.000000   0.000000   0.000000   0.000000
   40  NA 1 YZ    0.000000   0.000000   0.000000   0.000000   0.009179
   41  NA 1 XX    0.000000   0.000000   0.000000   0.016781   0.000000
   42  NA 1 YY    0.000000   0.000000   0.000000  -0.016781   0.000000
   43  NA 1 ZZ    0.000000   0.000000   0.000000   0.000000   0.000000
   44  NA 1 XY    0.000000   0.000000   0.000000   0.000000   0.000000
   45  NA 1 XZ    0.000000   0.000000   0.000000   0.000000   0.000000
   46  NA 1 YZ    0.000000   0.000000   0.000000   0.000000   0.019377
   47  NA 1 XX    0.000000   0.000000   0.000000   1.461087   0.000000
   48  NA 1 YY    0.000000   0.000000   0.000000  -1.461087   0.000000
   49  NA 1 ZZ    0.000000   0.000000   0.000000   0.000000   0.000000
   50  NA 1 XY    0.000000   0.000000   0.000000   0.000000   0.000000
   51  NA 1 XZ    0.000000   0.000000   0.000000   0.000000   0.000000
   52  NA 1 YZ    0.000000   0.000000   0.000000   0.000000   1.687118
   53  NA 1 XX    0.000000   0.000000   0.000000  -1.047878   0.000000
   54  NA 1 YY    0.000000   0.000000   0.000000   1.047878   0.000000
   55  NA 1 ZZ    0.000000   0.000000   0.000000   0.000000   0.000000
   56  NA 1 XY    0.000000   0.000000   0.000000   0.000000   0.000000
   57  NA 1 XZ    0.000000   0.000000   0.000000   0.000000   0.000000
   58  NA 1 YZ    0.000000   0.000000   0.000000   0.000000  -1.209985
   59  NA 1 XXX   0.000000   0.000000   0.000000   0.000000   0.000000
   60  NA 1 YYY   0.000000   0.000000   0.000000   0.000000   0.000000
   61  NA 1 ZZZ   0.000000   0.000000   0.000000   0.000000   0.000000
   62  NA 1 XXY   0.000000   0.000000   0.000000   0.000000   0.000000
   63  NA 1 XXZ   0.000000   0.000000   0.000000   0.000000   0.000000
   64  NA 1 YYX   0.000000   0.000000   0.000000   0.000000   0.000000
   65  NA 1 YYZ   0.000000   0.000000   0.000000   0.000000   0.000000
   66  NA 1 ZZX   0.000000   0.000000   0.000000   0.000000   0.000000
   67  NA 1 ZZY   0.000000   0.000000   0.000000   0.000000   0.000000
   68  NA 1 XYZ   0.000000   0.000000   0.000000   0.000000   0.000000
   69  NA 1 XXX   0.000000   0.000000   0.000000   0.000000   0.000000
   70  NA 1 YYY   0.000000   0.000000   0.000000   0.000000   0.000000
   71  NA 1 ZZZ   0.000000   0.000000   0.000000   0.000000   0.000000
   72  NA 1 XXY   0.000000   0.000000   0.000000   0.000000   0.000000
   73  NA 1 XXZ   0.000000   0.000000   0.000000   0.000000   0.000000
   74  NA 1 YYX   0.000000   0.000000   0.000000   0.000000   0.000000
   75  NA 1 YYZ   0.000000   0.000000   0.000000   0.000000   0.000000
   76  NA 1 ZZX   0.000000   0.000000   0.000000   0.000000   0.000000
   77  NA 1 ZZY   0.000000   0.000000   0.000000   0.000000   0.000000
   78  NA 1 XYZ   0.000000   0.000000   0.000000   0.000000   0.000000
   79  NA 1 XXX   0.000000   0.000000   0.000000   0.000000   0.000000
   80  NA 1 YYY   0.000000   0.000000   0.000000   0.000000   0.000000
   81  NA 1 ZZZ   0.000000   0.000000   0.000000   0.000000   0.000000
   82  NA 1 XXY   0.000000   0.000000   0.000000   0.000000   0.000000
   83  NA 1 XXZ   0.000000   0.000000   0.000000   0.000000   0.000000
   84  NA 1 YYX   0.000000   0.000000   0.000000   0.000000   0.000000
   85  NA 1 YYZ   0.000000   0.000000   0.000000   0.000000   0.000000
   86  NA 1 ZZX   0.000000   0.000000   0.000000   0.000000   0.000000
   87  NA 1 ZZY   0.000000   0.000000   0.000000   0.000000   0.000000
   88  NA 1 XYZ   0.000000   0.000000   0.000000   0.000000   0.000000

                     31         32         33         34         35
                    0.3498     0.3498     0.3498     0.7055     0.7055
                     A          A          A          A          A   
    1  NA 1  S    0.000000   0.000000   0.000000   0.000000   0.000000
    2  NA 1  S    0.000000   0.000000   0.000000   0.000000   0.000000
    3  NA 1  S    0.000000   0.000000   0.000000   0.000000   0.000000
    4  NA 1  S    0.000000   0.000000   0.000000   0.000000   0.000000
    5  NA 1  S    0.000000   0.000000   0.000000   0.000000   0.000000
    6  NA 1  S    0.000000   0.000000   0.000000   0.000000   0.000000
    7  NA 1  S    0.000000   0.000000   0.000000   0.000000   0.000000
    8  NA 1  X    0.000000   0.000000   0.000000   0.000000   0.000000
    9  NA 1  Y    0.000000   0.000000   0.000000   0.000000   0.000000
   10  NA 1  Z    0.000000   0.000000   0.000000   0.000000   0.000000
   11  NA 1  X    0.000000   0.000000   0.000000   0.000000   0.000000
   12  NA 1  Y    0.000000   0.000000   0.000000   0.000000   0.000000
   13  NA 1  Z    0.000000   0.000000   0.000000   0.000000   0.000000
   14  NA 1  X    0.000000   0.000000   0.000000   0.000000   0.000000
   15  NA 1  Y    0.000000   0.000000   0.000000   0.000000   0.000000
   16  NA 1  Z    0.000000   0.000000   0.000000   0.000000   0.000000
   17  NA 1  X    0.000000   0.000000   0.000000   0.000000   0.000000
   18  NA 1  Y    0.000000   0.000000   0.000000   0.000000   0.000000
   19  NA 1  Z    0.000000   0.000000   0.000000   0.000000   0.000000
   20  NA 1  X    0.000000   0.000000   0.000000   0.000000   0.000000
   21  NA 1  Y    0.000000   0.000000   0.000000   0.000000   0.000000
   22  NA 1  Z    0.000000   0.000000   0.000000   0.000000   0.000000
   23  NA 1  X    0.000000   0.000000   0.000000   0.000000   0.000000
   24  NA 1  Y    0.000000   0.000000   0.000000   0.000000   0.000000
   25  NA 1  Z    0.000000   0.000000   0.000000   0.000000   0.000000
   26  NA 1  X    0.000000   0.000000   0.000000   0.000000   0.000000
   27  NA 1  Y    0.000000   0.000000   0.000000   0.000000   0.000000
   28  NA 1  Z    0.000000   0.000000   0.000000   0.000000   0.000000
   29  NA 1 XX   -0.000600   0.000000   0.000000   0.000000   0.000000
   30  NA 1 YY   -0.000600   0.000000   0.000000   0.000000   0.000000
   31  NA 1 ZZ    0.001200   0.000000   0.000000   0.000000   0.000000
   32  NA 1 XY    0.000000   0.000000   0.001200   0.000000   0.000000
   33  NA 1 XZ    0.000000   0.001200   0.000000   0.000000   0.000000
   34  NA 1 YZ    0.000000   0.000000   0.000000   0.000000   0.000000
   35  NA 1 XX   -0.004590   0.000000   0.000000   0.000000   0.000000
   36  NA 1 YY   -0.004590   0.000000   0.000000   0.000000   0.000000
   37  NA 1 ZZ    0.009179   0.000000   0.000000   0.000000   0.000000
   38  NA 1 XY    0.000000   0.000000   0.009179   0.000000   0.000000
   39  NA 1 XZ    0.000000   0.009179   0.000000   0.000000   0.000000
   40  NA 1 YZ    0.000000   0.000000   0.000000   0.000000   0.000000
   41  NA 1 XX   -0.009688   0.000000   0.000000   0.000000   0.000000
   42  NA 1 YY   -0.009688   0.000000   0.000000   0.000000   0.000000
   43  NA 1 ZZ    0.019377   0.000000   0.000000   0.000000   0.000000
   44  NA 1 XY    0.000000   0.000000   0.019377   0.000000   0.000000
   45  NA 1 XZ    0.000000   0.019377   0.000000   0.000000   0.000000
   46  NA 1 YZ    0.000000   0.000000   0.000000   0.000000   0.000000
   47  NA 1 XX   -0.843559   0.000000   0.000000   0.000000   0.000000
   48  NA 1 YY   -0.843559   0.000000   0.000000   0.000000   0.000000
   49  NA 1 ZZ    1.687118   0.000000   0.000000   0.000000   0.000000
   50  NA 1 XY    0.000000   0.000000   1.687118   0.000000   0.000000
   51  NA 1 XZ    0.000000   1.687118   0.000000   0.000000   0.000000
   52  NA 1 YZ    0.000000   0.000000   0.000000   0.000000   0.000000
   53  NA 1 XX    0.604992   0.000000   0.000000   0.000000   0.000000
   54  NA 1 YY    0.604992   0.000000   0.000000   0.000000   0.000000
   55  NA 1 ZZ   -1.209985   0.000000   0.000000   0.000000   0.000000
   56  NA 1 XY    0.000000   0.000000  -1.209985   0.000000   0.000000
   57  NA 1 XZ    0.000000  -1.209985   0.000000   0.000000   0.000000
   58  NA 1 YZ    0.000000   0.000000   0.000000   0.000000   0.000000
   59  NA 1 XXX   0.000000   0.000000   0.000000   0.000000   0.000000
   60  NA 1 YYY   0.000000   0.000000   0.000000   0.000000   0.000000
   61  NA 1 ZZZ   0.000000   0.000000   0.000000   0.000000   0.001511
   62  NA 1 XXY   0.000000   0.000000   0.000000   0.000000   0.000000
   63  NA 1 XXZ   0.000000   0.000000   0.000000   0.000000  -0.001014
   64  NA 1 YYX   0.000000   0.000000   0.000000   0.000000   0.000000
   65  NA 1 YYZ   0.000000   0.000000   0.000000   0.000000  -0.001014
   66  NA 1 ZZX   0.000000   0.000000   0.000000   0.000000   0.000000
   67  NA 1 ZZY   0.000000   0.000000   0.000000   0.000000   0.000000
   68  NA 1 XYZ   0.000000   0.000000   0.000000   0.001511   0.000000
   69  NA 1 XXX   0.000000   0.000000   0.000000   0.000000   0.000000
   70  NA 1 YYY   0.000000   0.000000   0.000000   0.000000   0.000000
   71  NA 1 ZZZ   0.000000   0.000000   0.000000   0.000000   1.522629
   72  NA 1 XXY   0.000000   0.000000   0.000000   0.000000   0.000000
   73  NA 1 XXZ   0.000000   0.000000   0.000000   0.000000  -1.021411
   74  NA 1 YYX   0.000000   0.000000   0.000000   0.000000   0.000000
   75  NA 1 YYZ   0.000000   0.000000   0.000000   0.000000  -1.021411
   76  NA 1 ZZX   0.000000   0.000000   0.000000   0.000000   0.000000
   77  NA 1 ZZY   0.000000   0.000000   0.000000   0.000000   0.000000
   78  NA 1 XYZ   0.000000   0.000000   0.000000   1.522629   0.000000
   79  NA 1 XXX   0.000000   0.000000   0.000000   0.000000   0.000000
   80  NA 1 YYY   0.000000   0.000000   0.000000   0.000000   0.000000
   81  NA 1 ZZZ   0.000000   0.000000   0.000000   0.000000  -0.953363
   82  NA 1 XXY   0.000000   0.000000   0.000000   0.000000   0.000000
   83  NA 1 XXZ   0.000000   0.000000   0.000000   0.000000   0.639536
   84  NA 1 YYX   0.000000   0.000000   0.000000   0.000000   0.000000
   85  NA 1 YYZ   0.000000   0.000000   0.000000   0.000000   0.639536
   86  NA 1 ZZX   0.000000   0.000000   0.000000   0.000000   0.000000
   87  NA 1 ZZY   0.000000   0.000000   0.000000   0.000000   0.000000
   88  NA 1 XYZ   0.000000   0.000000   0.000000  -0.953363   0.000000

                     36         37         38         39         40
                    0.7055     0.7055     0.7055     0.7055     0.7055
                     A          A          A          A          A   
    1  NA 1  S    0.000000   0.000000   0.000000   0.000000   0.000000
    2  NA 1  S    0.000000   0.000000   0.000000   0.000000   0.000000
    3  NA 1  S    0.000000   0.000000   0.000000   0.000000   0.000000
    4  NA 1  S    0.000000   0.000000   0.000000   0.000000   0.000000
    5  NA 1  S    0.000000   0.000000   0.000000   0.000000   0.000000
    6  NA 1  S    0.000000   0.000000   0.000000   0.000000   0.000000
    7  NA 1  S    0.000000   0.000000   0.000000   0.000000   0.000000
    8  NA 1  X    0.000000   0.000000   0.000000   0.000000   0.000000
    9  NA 1  Y    0.000000   0.000000   0.000000   0.000000   0.000000
   10  NA 1  Z    0.000000   0.000000   0.000000   0.000000   0.000000
   11  NA 1  X    0.000000   0.000000   0.000000   0.000000   0.000000
   12  NA 1  Y    0.000000   0.000000   0.000000   0.000000   0.000000
   13  NA 1  Z    0.000000   0.000000   0.000000   0.000000   0.000000
   14  NA 1  X    0.000000   0.000000   0.000000   0.000000   0.000000
   15  NA 1  Y    0.000000   0.000000   0.000000   0.000000   0.000000
   16  NA 1  Z    0.000000   0.000000   0.000000   0.000000   0.000000
   17  NA 1  X    0.000000   0.000000   0.000000   0.000000   0.000000
   18  NA 1  Y    0.000000   0.000000   0.000000   0.000000   0.000000
   19  NA 1  Z    0.000000   0.000000   0.000000   0.000000   0.000000
   20  NA 1  X    0.000000   0.000000   0.000000   0.000000   0.000000
   21  NA 1  Y    0.000000   0.000000   0.000000   0.000000   0.000000
   22  NA 1  Z    0.000000   0.000000   0.000000   0.000000   0.000000
   23  NA 1  X    0.000000   0.000000   0.000000   0.000000   0.000000
   24  NA 1  Y    0.000000   0.000000   0.000000   0.000000   0.000000
   25  NA 1  Z    0.000000   0.000000   0.000000   0.000000   0.000000
   26  NA 1  X    0.000000   0.000000   0.000000   0.000000   0.000000
   27  NA 1  Y    0.000000   0.000000   0.000000   0.000000   0.000000
   28  NA 1  Z    0.000000   0.000000   0.000000   0.000000   0.000000
   29  NA 1 XX    0.000000   0.000000   0.000000   0.000000   0.000000
   30  NA 1 YY    0.000000   0.000000   0.000000   0.000000   0.000000
   31  NA 1 ZZ    0.000000   0.000000   0.000000   0.000000   0.000000
   32  NA 1 XY    0.000000   0.000000   0.000000   0.000000   0.000000
   33  NA 1 XZ    0.000000   0.000000   0.000000   0.000000   0.000000
   34  NA 1 YZ    0.000000   0.000000   0.000000   0.000000   0.000000
   35  NA 1 XX    0.000000   0.000000   0.000000   0.000000   0.000000
   36  NA 1 YY    0.000000   0.000000   0.000000   0.000000   0.000000
   37  NA 1 ZZ    0.000000   0.000000   0.000000   0.000000   0.000000
   38  NA 1 XY    0.000000   0.000000   0.000000   0.000000   0.000000
   39  NA 1 XZ    0.000000   0.000000   0.000000   0.000000   0.000000
   40  NA 1 YZ    0.000000   0.000000   0.000000   0.000000   0.000000
   41  NA 1 XX    0.000000   0.000000   0.000000   0.000000   0.000000
   42  NA 1 YY    0.000000   0.000000   0.000000   0.000000   0.000000
   43  NA 1 ZZ    0.000000   0.000000   0.000000   0.000000   0.000000
   44  NA 1 XY    0.000000   0.000000   0.000000   0.000000   0.000000
   45  NA 1 XZ    0.000000   0.000000   0.000000   0.000000   0.000000
   46  NA 1 YZ    0.000000   0.000000   0.000000   0.000000   0.000000
   47  NA 1 XX    0.000000   0.000000   0.000000   0.000000   0.000000
   48  NA 1 YY    0.000000   0.000000   0.000000   0.000000   0.000000
   49  NA 1 ZZ    0.000000   0.000000   0.000000   0.000000   0.000000
   50  NA 1 XY    0.000000   0.000000   0.000000   0.000000   0.000000
   51  NA 1 XZ    0.000000   0.000000   0.000000   0.000000   0.000000
   52  NA 1 YZ    0.000000   0.000000   0.000000   0.000000   0.000000
   53  NA 1 XX    0.000000   0.000000   0.000000   0.000000   0.000000
   54  NA 1 YY    0.000000   0.000000   0.000000   0.000000   0.000000
   55  NA 1 ZZ    0.000000   0.000000   0.000000   0.000000   0.000000
   56  NA 1 XY    0.000000   0.000000   0.000000   0.000000   0.000000
   57  NA 1 XZ    0.000000   0.000000   0.000000   0.000000   0.000000
   58  NA 1 YZ    0.000000   0.000000   0.000000   0.000000   0.000000
   59  NA 1 XXX  -0.000926   0.000000   0.000000  -0.001195   0.000000
   60  NA 1 YYY   0.000000   0.000000  -0.000926   0.000000  -0.001195
   61  NA 1 ZZZ   0.000000   0.000000   0.000000   0.000000   0.000000
   62  NA 1 XXY   0.000000   0.000000  -0.000414   0.000000   0.001603
   63  NA 1 XXZ   0.000000   0.001309   0.000000   0.000000   0.000000
   64  NA 1 YYX  -0.000414   0.000000   0.000000   0.001603   0.000000
   65  NA 1 YYZ   0.000000  -0.001309   0.000000   0.000000   0.000000
   66  NA 1 ZZX   0.001656   0.000000   0.000000   0.000000   0.000000
   67  NA 1 ZZY   0.000000   0.000000   0.001656   0.000000   0.000000
   68  NA 1 XYZ   0.000000   0.000000   0.000000   0.000000   0.000000
   69  NA 1 XXX  -0.932416   0.000000   0.000000  -1.203744   0.000000
   70  NA 1 YYY   0.000000   0.000000  -0.932416   0.000000  -1.203744
   71  NA 1 ZZZ   0.000000   0.000000   0.000000   0.000000   0.000000
   72  NA 1 XXY   0.000000   0.000000  -0.416989   0.000000   1.614992
   73  NA 1 XXZ   0.000000   1.318636   0.000000   0.000000   0.000000
   74  NA 1 YYX  -0.416989   0.000000   0.000000   1.614992   0.000000
   75  NA 1 YYZ   0.000000  -1.318636   0.000000   0.000000   0.000000
   76  NA 1 ZZX   1.667957   0.000000   0.000000   0.000000   0.000000
   77  NA 1 ZZY   0.000000   0.000000   1.667957   0.000000   0.000000
   78  NA 1 XYZ   0.000000   0.000000   0.000000   0.000000   0.000000
   79  NA 1 XXX   0.583813   0.000000   0.000000   0.753700   0.000000
   80  NA 1 YYY   0.000000   0.000000   0.583813   0.000000   0.753700
   81  NA 1 ZZZ   0.000000   0.000000   0.000000   0.000000   0.000000
   82  NA 1 XXY   0.000000   0.000000   0.261089   0.000000  -1.011195
[...]
   16  NA 1  Z    0.000000   0.000000   0.000000   0.000000   0.000000
   17  NA 1  X    0.000000   0.000000   0.000000   0.000000   0.000000
   18  NA 1  Y    0.000000   0.000000   0.000000   0.000000   0.000000
   19  NA 1  Z    0.000000   0.000000   0.000000   0.000000   0.000000
   20  NA 1  X    0.000000   0.000000   0.000000   0.000000   0.000000
   21  NA 1  Y    0.000000   0.000000   0.000000   0.000000   0.000000
   22  NA 1  Z    0.000000   0.000000   0.000000   0.000000   0.000000
   23  NA 1  X    0.000000   0.000000   0.000000   0.000000   0.000000
   24  NA 1  Y    0.000000   0.000000   0.000000   0.000000   0.000000
   25  NA 1  Z    0.000000   0.000000   0.000000   0.000000   0.000000
   26  NA 1  X    0.000000   0.000000   0.000000   0.000000   0.000000
   27  NA 1  Y    0.000000   0.000000   0.000000   0.000000   0.000000
   28  NA 1  Z    0.000000   0.000000   0.000000   0.000000   0.000000
   29  NA 1 XX    0.000000   0.000000   0.000000   1.107806  -0.639592
   30  NA 1 YY    0.000000   0.000000   0.000000  -1.107806  -0.639592
   31  NA 1 ZZ    0.000000   0.000000   0.000000   0.000000   1.279184
   32  NA 1 XY    0.000000   0.000000   0.000000   0.000000   0.000000
   33  NA 1 XZ    0.000000   0.000000   0.000000   0.000000   0.000000
   34  NA 1 YZ    0.000000   0.000000   0.000000   0.000000   0.000000
   35  NA 1 XX    0.000000   0.000000   0.000000  -0.796467   0.459841
   36  NA 1 YY    0.000000   0.000000   0.000000   0.796467   0.459841
   37  NA 1 ZZ    0.000000   0.000000   0.000000   0.000000  -0.919681
   38  NA 1 XY    0.000000   0.000000   0.000000   0.000000   0.000000
   39  NA 1 XZ    0.000000   0.000000   0.000000   0.000000   0.000000
   40  NA 1 YZ    0.000000   0.000000   0.000000   0.000000   0.000000
   41  NA 1 XX    0.000000   0.000000   0.000000   0.264718  -0.152835
   42  NA 1 YY    0.000000   0.000000   0.000000  -0.264718  -0.152835
   43  NA 1 ZZ    0.000000   0.000000   0.000000   0.000000   0.305670
   44  NA 1 XY    0.000000   0.000000   0.000000   0.000000   0.000000
   45  NA 1 XZ    0.000000   0.000000   0.000000   0.000000   0.000000
   46  NA 1 YZ    0.000000   0.000000   0.000000   0.000000   0.000000
   47  NA 1 XX    0.000000   0.000000   0.000000  -0.073145   0.042230
   48  NA 1 YY    0.000000   0.000000   0.000000   0.073145   0.042230
   49  NA 1 ZZ    0.000000   0.000000   0.000000   0.000000  -0.084461
   50  NA 1 XY    0.000000   0.000000   0.000000   0.000000   0.000000
   51  NA 1 XZ    0.000000   0.000000   0.000000   0.000000   0.000000
   52  NA 1 YZ    0.000000   0.000000   0.000000   0.000000   0.000000
   53  NA 1 XX    0.000000   0.000000   0.000000   0.045012  -0.025988
   54  NA 1 YY    0.000000   0.000000   0.000000  -0.045012  -0.025988
   55  NA 1 ZZ    0.000000   0.000000   0.000000   0.000000   0.051975
   56  NA 1 XY    0.000000   0.000000   0.000000   0.000000   0.000000
   57  NA 1 XZ    0.000000   0.000000   0.000000   0.000000   0.000000
   58  NA 1 YZ    0.000000   0.000000   0.000000   0.000000   0.000000
   59  NA 1 XXX  -0.790682   0.000000  -0.612460   0.000000   0.000000
   60  NA 1 YYY   0.000000   0.000000   0.000000   0.000000   0.000000
   61  NA 1 ZZZ   0.000000   1.000143   0.000000   0.000000   0.000000
   62  NA 1 XXY   0.000000   0.000000   0.000000   0.000000   0.000000
   63  NA 1 XXZ   0.000000  -0.670916   0.000000   0.000000   0.000000
   64  NA 1 YYX   1.060812   0.000000  -0.273900   0.000000   0.000000
   65  NA 1 YYZ   0.000000  -0.670916   0.000000   0.000000   0.000000
   66  NA 1 ZZX   0.000000   0.000000   1.095601   0.000000   0.000000
   67  NA 1 ZZY   0.000000   0.000000   0.000000   0.000000   0.000000
   68  NA 1 XYZ   0.000000   0.000000   0.000000   0.000000   0.000000
   69  NA 1 XXX   0.022365   0.000000   0.017324   0.000000   0.000000
   70  NA 1 YYY   0.000000   0.000000   0.000000   0.000000   0.000000
   71  NA 1 ZZZ   0.000000  -0.028290   0.000000   0.000000   0.000000
   72  NA 1 XXY   0.000000   0.000000   0.000000   0.000000   0.000000
   73  NA 1 XXZ   0.000000   0.018977   0.000000   0.000000   0.000000
   74  NA 1 YYX  -0.030006   0.000000   0.007747   0.000000   0.000000
   75  NA 1 YYZ   0.000000   0.018977   0.000000   0.000000   0.000000
   76  NA 1 ZZX   0.000000   0.000000  -0.030990   0.000000   0.000000
   77  NA 1 ZZY   0.000000   0.000000   0.000000   0.000000   0.000000
   78  NA 1 XYZ   0.000000   0.000000   0.000000   0.000000   0.000000
   79  NA 1 XXX  -0.014446   0.000000  -0.011190   0.000000   0.000000
   80  NA 1 YYY   0.000000   0.000000   0.000000   0.000000   0.000000
   81  NA 1 ZZZ   0.000000   0.018272   0.000000   0.000000   0.000000
   82  NA 1 XXY   0.000000   0.000000   0.000000   0.000000   0.000000
   83  NA 1 XXZ   0.000000  -0.012257   0.000000   0.000000   0.000000
   84  NA 1 YYX   0.019381   0.000000  -0.005004   0.000000   0.000000
   85  NA 1 YYZ   0.000000  -0.012257   0.000000   0.000000   0.000000
   86  NA 1 ZZX   0.000000   0.000000   0.020016   0.000000   0.000000
   87  NA 1 ZZY   0.000000   0.000000   0.000000   0.000000   0.000000
   88  NA 1 XYZ   0.000000   0.000000   0.000000   0.000000   0.000000

                     71         72         73         74
                   21.2066    21.2066    21.2066    39.0326
                     A          A          A          A   
    1  NA 1  S    0.000000   0.000000   0.000000  12.860023
    2  NA 1  S    0.000000   0.000000   0.000000  -1.012671
    3  NA 1  S    0.000000   0.000000   0.000000  -0.336338
    4  NA 1  S    0.000000   0.000000   0.000000  -9.850665
    5  NA 1  S    0.000000   0.000000   0.000000  -3.334325
    6  NA 1  S    0.000000   0.000000   0.000000  -0.181530
    7  NA 1  S    0.000000   0.000000   0.000000   1.044544
    8  NA 1  X    0.000000   0.000000   0.000000   0.000000
    9  NA 1  Y    0.000000   0.000000   0.000000   0.000000
   10  NA 1  Z    0.000000   0.000000   0.000000   0.000000
   11  NA 1  X    0.000000   0.000000   0.000000   0.000000
   12  NA 1  Y    0.000000   0.000000   0.000000   0.000000
   13  NA 1  Z    0.000000   0.000000   0.000000   0.000000
   14  NA 1  X    0.000000   0.000000   0.000000   0.000000
   15  NA 1  Y    0.000000   0.000000   0.000000   0.000000
   16  NA 1  Z    0.000000   0.000000   0.000000   0.000000
   17  NA 1  X    0.000000   0.000000   0.000000   0.000000
   18  NA 1  Y    0.000000   0.000000   0.000000   0.000000
   19  NA 1  Z    0.000000   0.000000   0.000000   0.000000
   20  NA 1  X    0.000000   0.000000   0.000000   0.000000
   21  NA 1  Y    0.000000   0.000000   0.000000   0.000000
   22  NA 1  Z    0.000000   0.000000   0.000000   0.000000
   23  NA 1  X    0.000000   0.000000   0.000000   0.000000
   24  NA 1  Y    0.000000   0.000000   0.000000   0.000000
   25  NA 1  Z    0.000000   0.000000   0.000000   0.000000
   26  NA 1  X    0.000000   0.000000   0.000000   0.000000
   27  NA 1  Y    0.000000   0.000000   0.000000   0.000000
   28  NA 1  Z    0.000000   0.000000   0.000000   0.000000
   29  NA 1 XX    0.000000   0.000000   0.000000   0.000000
   30  NA 1 YY    0.000000   0.000000   0.000000   0.000000
   31  NA 1 ZZ    0.000000   0.000000   0.000000   0.000000
   32  NA 1 XY    0.000000   1.279184   0.000000   0.000000
   33  NA 1 XZ    1.279184   0.000000   0.000000   0.000000
   34  NA 1 YZ    0.000000   0.000000   1.279184   0.000000
   35  NA 1 XX    0.000000   0.000000   0.000000   0.000000
   36  NA 1 YY    0.000000   0.000000   0.000000   0.000000
   37  NA 1 ZZ    0.000000   0.000000   0.000000   0.000000
   38  NA 1 XY    0.000000  -0.919681   0.000000   0.000000
   39  NA 1 XZ   -0.919681   0.000000   0.000000   0.000000
   40  NA 1 YZ    0.000000   0.000000  -0.919681   0.000000
   41  NA 1 XX    0.000000   0.000000   0.000000   0.000000
   42  NA 1 YY    0.000000   0.000000   0.000000   0.000000
   43  NA 1 ZZ    0.000000   0.000000   0.000000   0.000000
   44  NA 1 XY    0.000000   0.305670   0.000000   0.000000
   45  NA 1 XZ    0.305670   0.000000   0.000000   0.000000
   46  NA 1 YZ    0.000000   0.000000   0.305670   0.000000
   47  NA 1 XX    0.000000   0.000000   0.000000   0.000000
   48  NA 1 YY    0.000000   0.000000   0.000000   0.000000
   49  NA 1 ZZ    0.000000   0.000000   0.000000   0.000000
   50  NA 1 XY    0.000000  -0.084461   0.000000   0.000000
   51  NA 1 XZ   -0.084461   0.000000   0.000000   0.000000
   52  NA 1 YZ    0.000000   0.000000  -0.084461   0.000000
   53  NA 1 XX    0.000000   0.000000   0.000000   0.000000
   54  NA 1 YY    0.000000   0.000000   0.000000   0.000000
   55  NA 1 ZZ    0.000000   0.000000   0.000000   0.000000
   56  NA 1 XY    0.000000   0.051975   0.000000   0.000000
   57  NA 1 XZ    0.051975   0.000000   0.000000   0.000000
   58  NA 1 YZ    0.000000   0.000000   0.051975   0.000000
   59  NA 1 XXX   0.000000   0.000000   0.000000   0.000000
   60  NA 1 YYY   0.000000   0.000000   0.000000   0.000000
   61  NA 1 ZZZ   0.000000   0.000000   0.000000   0.000000
   62  NA 1 XXY   0.000000   0.000000   0.000000   0.000000
   63  NA 1 XXZ   0.000000   0.000000   0.000000   0.000000
   64  NA 1 YYX   0.000000   0.000000   0.000000   0.000000
   65  NA 1 YYZ   0.000000   0.000000   0.000000   0.000000
   66  NA 1 ZZX   0.000000   0.000000   0.000000   0.000000
   67  NA 1 ZZY   0.000000   0.000000   0.000000   0.000000
   68  NA 1 XYZ   0.000000   0.000000   0.000000   0.000000
   69  NA 1 XXX   0.000000   0.000000   0.000000   0.000000
   70  NA 1 YYY   0.000000   0.000000   0.000000   0.000000
   71  NA 1 ZZZ   0.000000   0.000000   0.000000   0.000000
   72  NA 1 XXY   0.000000   0.000000   0.000000   0.000000
   73  NA 1 XXZ   0.000000   0.000000   0.000000   0.000000
   74  NA 1 YYX   0.000000   0.000000   0.000000   0.000000
   75  NA 1 YYZ   0.000000   0.000000   0.000000   0.000000
   76  NA 1 ZZX   0.000000   0.000000   0.000000   0.000000
   77  NA 1 ZZY   0.000000   0.000000   0.000000   0.000000
   78  NA 1 XYZ   0.000000   0.000000   0.000000   0.000000
   79  NA 1 XXX   0.000000   0.000000   0.000000   0.000000
   80  NA 1 YYY   0.000000   0.000000   0.000000   0.000000
   81  NA 1 ZZZ   0.000000   0.000000   0.000000   0.000000
   82  NA 1 XXY   0.000000   0.000000   0.000000   0.000000
   83  NA 1 XXZ   0.000000   0.000000   0.000000   0.000000
   84  NA 1 YYX   0.000000   0.000000   0.000000   0.000000
   85  NA 1 YYZ   0.000000   0.000000   0.000000   0.000000
   86  NA 1 ZZX   0.000000   0.000000   0.000000   0.000000
   87  NA 1 ZZY   0.000000   0.000000   0.000000   0.000000
   88  NA 1 XYZ   0.000000   0.000000   0.000000   0.000000
 ...... END OF ROHF CALCULATION ......
 STEP CPU TIME =     0.72 TOTAL CPU TIME =        3.8 (    0.1 MIN)
 TOTAL WALL CLOCK TIME=        5.3 SECONDS, CPU UTILIZATION IS  72.62%

     ----------------------------------------------------------------
     PROPERTY VALUES FOR THE ROHF  SELF-CONSISTENT FIELD WAVEFUNCTION
     ----------------------------------------------------------------

          -----------------
          ENERGY COMPONENTS
          -----------------

         WAVEFUNCTION NORMALIZATION =       1.0000000000

                ONE ELECTRON ENERGY =     -79.8178025874
                TWO ELECTRON ENERGY =      32.4606431196
           NUCLEAR REPULSION ENERGY =       0.0000000000
                                      ------------------
                       TOTAL ENERGY =     -47.3571594677

 ELECTRON-ELECTRON POTENTIAL ENERGY =      32.4606431196
  NUCLEUS-ELECTRON POTENTIAL ENERGY =    -116.3451973823
   NUCLEUS-NUCLEUS POTENTIAL ENERGY =       0.0000000000
                                      ------------------
             TOTAL POTENTIAL ENERGY =     -83.8845542627
               TOTAL KINETIC ENERGY =      36.5273947950
                 VIRIAL RATIO (V/T) =       2.2964833581

          ---------------------------------------
          MULLIKEN AND LOWDIN POPULATION ANALYSES
          ---------------------------------------

     ATOMIC MULLIKEN POPULATION IN EACH MOLECULAR ORBITAL

                      1          2          3          4          5

                  2.000000   2.000000   2.000000   2.000000   1.000000

    1             2.000000   2.000000   2.000000   2.000000   1.000000

          MULLIKEN SPHERICAL HARMONIC POPULATIONS
       ATOM           S       P       D      F      G      H      I    TOTAL
    1 NA            2.00    3.00    0.00   0.00   0.00   0.00   0.00    5.00

          MULLIKEN SPHERICAL HARMONIC POPULATIONS
       ATOM           S       P       D      F      G      H      I    TOTAL
    1 NA            1.00    3.00    0.00   0.00   0.00   0.00   0.00    4.00

     ATOMIC SPIN POPULATION (ALPHA MINUS BETA)
       ATOM         MULL.POP.                    LOW.POP.
    1 NA            1.000000                     1.000000

               ----- POPULATIONS IN EACH AO -----
                             MULLIKEN      LOWDIN
              1  NA 1  S      1.99999     0.33562
              2  NA 1  S      1.00026     0.22945
              3  NA 1  S     -0.00000     0.11443
              4  NA 1  S      0.00000     0.32437
              5  NA 1  S     -0.00001     0.25341
              6  NA 1  S     -0.00004     0.18731
              7  NA 1  S     -0.00020     0.17957
              8  NA 1  X      1.99988     0.89357
              9  NA 1  Y      1.99988     0.89357
             10  NA 1  Z      1.99988     0.89357
             11  NA 1  X     -0.00000     0.00200
             12  NA 1  Y     -0.00000     0.00200
             13  NA 1  Z     -0.00000     0.00200
             14  NA 1  X      0.00000     0.43221
             15  NA 1  Y      0.00000     0.43221
             16  NA 1  Z      0.00000     0.43221
             17  NA 1  X     -0.00001     0.25069
             18  NA 1  Y     -0.00001     0.25069
             19  NA 1  Z     -0.00001     0.25069
             20  NA 1  X      0.00010     0.01881
             21  NA 1  Y      0.00010     0.01881
             22  NA 1  Z      0.00010     0.01881
             23  NA 1  X      0.00004     0.00171
             24  NA 1  Y      0.00004     0.00171
             25  NA 1  Z      0.00004     0.00171
             26  NA 1  X     -0.00000     0.00012
             27  NA 1  Y     -0.00000     0.00012
             28  NA 1  Z     -0.00000     0.00012
             29  NA 1 XX      0.00000     0.09297
             30  NA 1 YY      0.00000     0.09297
             31  NA 1 ZZ      0.00000     0.09297
             32  NA 1 XY      0.00000     0.00000
             33  NA 1 XZ      0.00000     0.00000
             34  NA 1 YZ      0.00000     0.00000
             35  NA 1 XX      0.00000     0.17493
             36  NA 1 YY      0.00000     0.17493
             37  NA 1 ZZ      0.00000     0.17493
             38  NA 1 XY      0.00000     0.00000
             39  NA 1 XZ      0.00000     0.00000
             40  NA 1 YZ      0.00000     0.00000
             41  NA 1 XX      0.00000     0.05542
             42  NA 1 YY      0.00000     0.05542
             43  NA 1 ZZ      0.00000     0.05542
             44  NA 1 XY      0.00000     0.00000
             45  NA 1 XZ      0.00000     0.00000
             46  NA 1 YZ      0.00000     0.00000
             47  NA 1 XX      0.00000     0.07898
             48  NA 1 YY      0.00000     0.07898
             49  NA 1 ZZ      0.00000     0.07898
             50  NA 1 XY      0.00000     0.00000
             51  NA 1 XZ      0.00000     0.00000
             52  NA 1 YZ      0.00000     0.00000
             53  NA 1 XX      0.00000     0.05632
             54  NA 1 YY      0.00000     0.05632
             55  NA 1 ZZ      0.00000     0.05632
             56  NA 1 XY      0.00000     0.00000
             57  NA 1 XZ      0.00000     0.00000
             58  NA 1 YZ      0.00000     0.00000
             59  NA 1 XXX     0.00000     0.20220
             60  NA 1 YYY     0.00000     0.20220
             61  NA 1 ZZZ     0.00000     0.20220
             62  NA 1 XXY     0.00000     0.09794
             63  NA 1 XXZ     0.00000     0.09794
             64  NA 1 YYX     0.00000     0.09794
             65  NA 1 YYZ     0.00000     0.09794
             66  NA 1 ZZX     0.00000     0.09794
             67  NA 1 ZZY     0.00000     0.09794
             68  NA 1 XYZ     0.00000     0.00000
             69  NA 1 XXX     0.00000     0.00140
             70  NA 1 YYY     0.00000     0.00140
             71  NA 1 ZZZ     0.00000     0.00140
             72  NA 1 XXY     0.00000     0.00071
             73  NA 1 XXZ     0.00000     0.00071
             74  NA 1 YYX     0.00000     0.00071
             75  NA 1 YYZ     0.00000     0.00071
             76  NA 1 ZZX     0.00000     0.00071
             77  NA 1 ZZY     0.00000     0.00071
             78  NA 1 XYZ     0.00000     0.00000
             79  NA 1 XXX     0.00000     0.00001
             80  NA 1 YYY     0.00000     0.00001
             81  NA 1 ZZZ     0.00000     0.00001
             82  NA 1 XXY     0.00000     0.00000
             83  NA 1 XXZ     0.00000     0.00000
             84  NA 1 YYX     0.00000     0.00000
             85  NA 1 YYZ     0.00000     0.00000
             86  NA 1 ZZX     0.00000     0.00000
             87  NA 1 ZZY     0.00000     0.00000
             88  NA 1 XYZ     0.00000     0.00000

          ----- MULLIKEN ATOMIC OVERLAP POPULATIONS -----
          (OFF-DIAGONAL ELEMENTS NEED TO BE MULTIPLIED BY 2)

             1

    1    9.0000000

          TOTAL MULLIKEN AND LOWDIN ATOMIC POPULATIONS
       ATOM         MULL.POP.    CHARGE          LOW.POP.     CHARGE
    1 NA            9.000000    0.000000         9.000000    0.000000

          MULLIKEN SPHERICAL HARMONIC POPULATIONS
       ATOM           S       P       D      F      G      H      I    TOTAL
    1 NA            3.00    6.00    0.00   0.00   0.00   0.00   0.00    9.00

          -------------------------------
          BOND ORDER AND VALENCE ANALYSIS     BOND ORDER THRESHOLD=0.050
          -------------------------------

                   BOND                       BOND                       BOND
  ATOM PAIR DIST  ORDER      ATOM PAIR DIST  ORDER      ATOM PAIR DIST  ORDER

                       TOTAL       BONDED        FREE
      ATOM            VALENCE     VALENCE     VALENCE
    1 NA                1.000       0.000       1.000

          -----------------------------------------
          ATOMIC SPIN DENSITY AT THE NUCLEUS (A.U.)
          -----------------------------------------
                            SPIN DENS    ALPHA DENS     BETA DENS
    1  NA           9.0     0.0044702       0.16633       0.16186

          ---------------------
          ELECTROSTATIC MOMENTS
          ---------------------

 POINT   1           X           Y           Z (BOHR)    CHARGE
                 0.000000    0.000000    0.000000        0.00 (A.U.)
         DX          DY          DZ         /D/  (DEBYE)
     0.000000    0.000000    0.000000    0.000000
 ...... END OF PROPERTY EVALUATION ......
 STEP CPU TIME =     0.10 TOTAL CPU TIME =        3.9 (    0.1 MIN)
 TOTAL WALL CLOCK TIME=        5.4 SECONDS, CPU UTILIZATION IS  72.32%
                580000  WORDS OF DYNAMIC MEMORY USED
 EXECUTION OF GAMESS TERMINATED NORMALLY Wed Jan 16 14:44:25 2019
 DDI: 263624 bytes (0.3 MB / 0 MWords) used by master data server.

 ----------------------------------------
 CPU timing information for all processes
 ========================================
 0: 3.519 + 0.443 = 3.963
 ----------------------------------------
 ddikick.x: exited gracefully.
----- accounting info -----
Files used on the master node c455-002.stampede2.tacc.utexas.edu were:
-rw------- 1 aannabe G-801537     2689 Jan 16 14:44 /tmp/Na.F05
-rw------- 1 aannabe G-801537 12241088 Jan 16 14:44 /tmp/Na.F08
-rw------- 1 aannabe G-801537  2748480 Jan 16 14:44 /tmp/Na.F10
Wed Jan 16 14:44:28 CST 2019
1.480u 0.843s 0:11.49 20.1%	0+0k 6416+24io 31pf+0w
