
 Primary working directories    : /global/cscratch1/sd/aannabe
 Secondary working directories  : /global/cscratch1/sd/aannabe
 Wavefunction directory         : /global/homes/a/aannabe/wfu/
 Main file repository           : /global/cscratch1/sd/aannabe/

 SHA1      : 2873118e99aab1bc19f5b6fc1784693c06d15c95
 NAME      : 2015.1.8
 ARCHNAME  : linux/x86_64
 FC        : /opt/cray/pe/craype/2.5.5/bin/ftn
 BLASLIB   : -Wl,-_start-group /opt/intel/compilers_and_libraries_2016.3.210/linux/mkl/lib/intel64/libmkl_intel_ilp64.a /opt/intel/compilers_and_libraries_2016.3.210/linux/mkl/lib/intel64/libmkl_intel_thread.a /opt/intel/compilers_and_libraries_2016.3.210/linux/mkl/lib/intel64/libmkl_core.a -Wl,-_end-group
 id        : lbl

 Nodes     nprocs
 nid00447     1

 Using customized tuning parameters: mindgm=8; mindgv=16; mindgc=4; mindgr=1; noblas=0; minvec=7
 default implementation of scratch files=df  

 ***,Co
 memory,512,m
 gthresh,twoint=1.e-12
 
 gprint,basis,orbitals
 gexpec,ekin,pot
 
 angstrom
 geometry={
 1                                                                               ! Number of atoms
 Co 0.0 0.0 0.0
 }
 
 basis={
 Including file /global/homes/a/aannabe/docs/totals_stu_symm/pps/Co.pp
 Including file /global/homes/a/aannabe/docs/totals_stu_symm/basis/unc-aug-cc-pwCVnZ/Co_qz.basis
 }
 
 {rhf
  start,atden
  print,orbitals=2
  wf,17,1,3
  occ,4,1,1,1,1,1,1,0
  open,1.4,1.6,1.7
  sym,1,1,1,3,2
  orbital,4202.2
 }
 pop
 {multi
  start,4202.2
  occ,4,1,1,1,1,1,1,0
  closed,2,1,1,0,1,0,0
  wf,17,1,3;state,1
  wf,17,4,3;state,3
  wf,17,6,3;state,3
  wf,17,7,3;state,3
  natorb,ci,print
  orbital,5202.2
 }
 {rhf,nitord=1,maxit=0
  start,5202.2
  wf,17,1,3
  occ,4,1,1,1,1,1,1,0
  open,1.4,1.6,1.7
 }
 
 scf(i)=energy
 
 _CC_NORM_MAX=2.0
 {ci
 maxit,100
 core
 }
 posthf(i)=energy
 
 table,scf,posthf,ekin,pot
 save,4.csv,new
 
 

 Variables initialized (889), CPU time= 0.01 sec
 Commands  initialized (702), CPU time= 0.00 sec, 572 directives.
 Default parameters read. Elapsed time= 0.14 sec

 Checking input...
 Passed
1


                                         ***  PROGRAM SYSTEM MOLPRO  ***
                                       Copyright, TTI GmbH Stuttgart, 2015
                                    Version 2015.1 linked Sep  7 2016 23:09:38


 **********************************************************************************************************************************
 LABEL *   Co                                                                            
  64 bit serial version                                                                  DATE: 05-Oct-18          TIME: 15:38:28  
 **********************************************************************************************************************************

 SHA1:             2873118e99aab1bc19f5b6fc1784693c06d15c95
 **********************************************************************************************************************************

 THRESHOLDS:

 ZERO    =  1.00D-12  ONEINT  =  1.00D-12  TWOINT  =  1.00D-12  PREFAC  =  1.00D-14  LOCALI  =  1.00D-09  EORDER  =  1.00D-04
 ENERGY  =  0.00D+00  ETEST   =  0.00D+00  EDENS   =  0.00D+00  THRDEDEF=  1.00D-06  GRADIENT=  1.00D-02  STEP    =  1.00D-03
 ORBITAL =  1.00D-05  CIVEC   =  1.00D-05  COEFF   =  1.00D-04  PRINTCI =  5.00D-02  PUNCHCI =  9.90D+01  OPTGRAD =  3.00D-04
 OPTENERG=  1.00D-06  OPTSTEP =  3.00D-04  THRGRAD =  1.00D-10  COMPRESS=  1.00D-11  VARMIN  =  1.00D-07  VARMAX  =  1.00D-03
 THRDOUB =  0.00D+00  THRDIV  =  1.00D-05  THRRED  =  1.00D-07  THRPSP  =  1.00D+00  THRDC   =  1.00D-10  THRCS   =  1.00D-10
 THRNRM  =  1.00D-08  THREQ   =  0.00D+00  THRDE   =  1.00D+00  THRREF  =  1.00D-05  SPARFAC =  1.00D+00  THRDLP  =  1.00D-07
 THRDIA  =  1.00D-10  THRDLS  =  1.00D-07  THRGPS  =  0.00D+00  THRKEX  =  0.00D+00  THRDIS  =  2.00D-01  THRVAR  =  1.00D-10
 THRLOC  =  1.00D-06  THRGAP  =  1.00D-06  THRLOCT = -1.00D+00  THRGAPT = -1.00D+00  THRORB  =  1.00D-06  THRMLTP =  0.00D+00
 THRCPQCI=  1.00D-10  KEXTA   =  0.00D+00  THRCOARS=  0.00D+00  SYMTOL  =  1.00D-06  GRADTOL =  1.00D-06  THROVL  =  1.00D-08
 THRORTH =  1.00D-08  GRID    =  1.00D-06  GRIDMAX =  1.00D-03  DTMAX   =  0.00D+00  THROCCDE=  1.00D-01  THROCCDE=  1.00D-01



 ZUNIT=ANG
 

Geometry recognized as XYZ


 Variable memory set to  512000000 words,  buffer space   230000 words

 SETTING BASIS          =    USERDEF


 Recomputing integrals since basis changed


 Using spherical harmonics



 PROGRAM * SEWARD (Integral evaluation for generally contracted gaussian basis sets)     Author: Roland Lindh, 1990

 Geometry written to block  1 of record 700

 Orientation using atomic masses  
 Molecule type: Atom
 Symmetry elements: X,Y,Z
 Rotational constants:       0.0000000      0.0000000      0.0000000 GHz  (calculated with average atomic masses)

 Point group  D2h 



 ATOMIC COORDINATES

 NR  ATOM    CHARGE       X              Y              Z

   1  CO     17.00    0.000000000    0.000000000    0.000000000


          CO  CORE POTENTIAL

          f POTENTIAL

 POWERS             2
 EXPONENTIALS   1.000000    
 COEFFICIENTS   0.000000    

          s - f POTENTIAL

 POWERS             2              2
 EXPONENTIALS   23.66000       10.61000    
 COEFFICIENTS   283.9606       47.15685    

          p - f POTENTIAL

 POWERS             2              2
 EXPONENTIALS   25.04000       10.44000    
 COEFFICIENTS   182.2122       35.23335    

          d - f POTENTIAL

 POWERS             2              2
 EXPONENTIALS   29.54000       10.18000    
 COEFFICIENTS  -26.47533      -1.825787    


 BASIS DATA

   Nr Sym  Nuc  Type         Exponents   Contraction coefficients

    1.1 Ag    1  1s    14370220.000000     1.000000
    2.1 Ag    1  1s     2151540.000000     1.000000
    3.1 Ag    1  1s      489625.700000     1.000000
    4.1 Ag    1  1s      138690.300000     1.000000
    5.1 Ag    1  1s       45249.890000     1.000000
    6.1 Ag    1  1s       16337.620000     1.000000
    7.1 Ag    1  1s        6373.073000     1.000000
    8.1 Ag    1  1s        2643.958000     1.000000
    9.1 Ag    1  1s        1153.614000     1.000000
   10.1 Ag    1  1s         524.860600     1.000000
   11.1 Ag    1  1s         247.306900     1.000000
   12.1 Ag    1  1s         119.906300     1.000000
   13.1 Ag    1  1s          58.964290     1.000000
   14.1 Ag    1  1s          27.136160     1.000000
   15.1 Ag    1  1s          13.689120     1.000000
   16.1 Ag    1  1s           6.882771     1.000000
   17.1 Ag    1  1s           3.144647     1.000000
   18.1 Ag    1  1s           1.506266     1.000000
   19.1 Ag    1  1s           0.687268     1.000000
   20.1 Ag    1  1s           0.160972     1.000000
   21.1 Ag    1  1s           0.073017     1.000000
   22.1 Ag    1  1s           0.032071     1.000000
   23.1 Ag    1  1s           6.245100     1.000000
   24.1 Ag    1  1s           1.775200     1.000000
   25.1 Ag    1  1s           0.014090     1.000000
   26.1 Ag    1  3d0        371.566000     1.000000
   27.1 Ag    1  3d2+       371.566000     1.000000
   28.1 Ag    1  3d0        110.115000     1.000000
   29.1 Ag    1  3d2+       110.115000     1.000000
   30.1 Ag    1  3d0         42.425500     1.000000
   31.1 Ag    1  3d2+        42.425500     1.000000
   32.1 Ag    1  3d0         18.336900     1.000000
   33.1 Ag    1  3d2+        18.336900     1.000000
   34.1 Ag    1  3d0          8.457300     1.000000
   35.1 Ag    1  3d2+         8.457300     1.000000
   36.1 Ag    1  3d0          4.041790     1.000000
   37.1 Ag    1  3d2+         4.041790     1.000000
   38.1 Ag    1  3d0          1.926030     1.000000
   39.1 Ag    1  3d2+         1.926030     1.000000
   40.1 Ag    1  3d0          0.894281     1.000000
   41.1 Ag    1  3d2+         0.894281     1.000000
   42.1 Ag    1  3d0          0.397988     1.000000
   43.1 Ag    1  3d2+         0.397988     1.000000
   44.1 Ag    1  3d0          0.166500     1.000000
   45.1 Ag    1  3d2+         0.166500     1.000000
   46.1 Ag    1  3d0          0.063025     1.000000
   47.1 Ag    1  3d2+         0.063025     1.000000
   48.1 Ag    1  3d0          6.274800     1.000000
   49.1 Ag    1  3d2+         6.274800     1.000000
   50.1 Ag    1  3d0          3.309700     1.000000
   51.1 Ag    1  3d2+         3.309700     1.000000
   52.1 Ag    1  3d0          0.023860     1.000000
   53.1 Ag    1  3d2+         0.023860     1.000000
   54.1 Ag    1  5g0          7.337700     1.000000
   55.1 Ag    1  5g4+         7.337700     1.000000
   56.1 Ag    1  5g2+         7.337700     1.000000
   57.1 Ag    1  5g0          3.225400     1.000000
   58.1 Ag    1  5g4+         3.225400     1.000000
   59.1 Ag    1  5g2+         3.225400     1.000000
   60.1 Ag    1  5g0          1.251000     1.000000
   61.1 Ag    1  5g4+         1.251000     1.000000
   62.1 Ag    1  5g2+         1.251000     1.000000
   63.1 Ag    1  5g0          0.485210     1.000000
   64.1 Ag    1  5g4+         0.485210     1.000000
   65.1 Ag    1  5g2+         0.485210     1.000000
    1.2 B3u   1  2px      41961.400000     1.000000
    2.2 B3u   1  2px       9928.306000     1.000000
    3.2 B3u   1  2px       3224.971000     1.000000
    4.2 B3u   1  2px       1235.293000     1.000000
    5.2 B3u   1  2px        525.846900     1.000000
    6.2 B3u   1  2px        240.976200     1.000000
    7.2 B3u   1  2px        116.641800     1.000000
    8.2 B3u   1  2px         58.848340     1.000000
    9.2 B3u   1  2px         30.529100     1.000000
   10.2 B3u   1  2px         16.169430     1.000000
   11.2 B3u   1  2px          8.664236     1.000000
   12.2 B3u   1  2px          4.591943     1.000000
   13.2 B3u   1  2px          2.381048     1.000000
   14.2 B3u   1  2px          1.206246     1.000000
   15.2 B3u   1  2px          0.588822     1.000000
   16.2 B3u   1  2px          0.224893     1.000000
   17.2 B3u   1  2px          0.090448     1.000000
   18.2 B3u   1  2px          0.035820     1.000000
   19.2 B3u   1  2px          9.415000     1.000000
   20.2 B3u   1  2px          2.575800     1.000000
   21.2 B3u   1  2px          0.014190     1.000000
   22.2 B3u   1  4f1+         8.972400     1.000000
   23.2 B3u   1  4f3+         8.972400     1.000000
   24.2 B3u   1  4f1+         3.777300     1.000000
   25.2 B3u   1  4f3+         3.777300     1.000000
   26.2 B3u   1  4f1+         1.590200     1.000000
   27.2 B3u   1  4f3+         1.590200     1.000000
   28.2 B3u   1  4f1+         0.536300     1.000000
   29.2 B3u   1  4f3+         0.536300     1.000000
   30.2 B3u   1  4f1+         0.180870     1.000000
   31.2 B3u   1  4f3+         0.180870     1.000000
   32.2 B3u   1  6h1+         6.717200     1.000000
   33.2 B3u   1  6h3+         6.717200     1.000000
   34.2 B3u   1  6h5+         6.717200     1.000000
   35.2 B3u   1  6h1+         2.748500     1.000000
   36.2 B3u   1  6h3+         2.748500     1.000000
   37.2 B3u   1  6h5+         2.748500     1.000000
   38.2 B3u   1  6h1+         1.124610     1.000000
   39.2 B3u   1  6h3+         1.124610     1.000000
   40.2 B3u   1  6h5+         1.124610     1.000000
    1.3 B2u   1  2py      41961.400000     1.000000
    2.3 B2u   1  2py       9928.306000     1.000000
    3.3 B2u   1  2py       3224.971000     1.000000
    4.3 B2u   1  2py       1235.293000     1.000000
    5.3 B2u   1  2py        525.846900     1.000000
    6.3 B2u   1  2py        240.976200     1.000000
    7.3 B2u   1  2py        116.641800     1.000000
    8.3 B2u   1  2py         58.848340     1.000000
    9.3 B2u   1  2py         30.529100     1.000000
   10.3 B2u   1  2py         16.169430     1.000000
   11.3 B2u   1  2py          8.664236     1.000000
   12.3 B2u   1  2py          4.591943     1.000000
   13.3 B2u   1  2py          2.381048     1.000000
   14.3 B2u   1  2py          1.206246     1.000000
   15.3 B2u   1  2py          0.588822     1.000000
   16.3 B2u   1  2py          0.224893     1.000000
   17.3 B2u   1  2py          0.090448     1.000000
   18.3 B2u   1  2py          0.035820     1.000000
   19.3 B2u   1  2py          9.415000     1.000000
   20.3 B2u   1  2py          2.575800     1.000000
   21.3 B2u   1  2py          0.014190     1.000000
   22.3 B2u   1  4f1-         8.972400     1.000000
   23.3 B2u   1  4f3-         8.972400     1.000000
   24.3 B2u   1  4f1-         3.777300     1.000000
   25.3 B2u   1  4f3-         3.777300     1.000000
   26.3 B2u   1  4f1-         1.590200     1.000000
   27.3 B2u   1  4f3-         1.590200     1.000000
   28.3 B2u   1  4f1-         0.536300     1.000000
   29.3 B2u   1  4f3-         0.536300     1.000000
   30.3 B2u   1  4f1-         0.180870     1.000000
   31.3 B2u   1  4f3-         0.180870     1.000000
   32.3 B2u   1  6h1-         6.717200     1.000000
   33.3 B2u   1  6h3-         6.717200     1.000000
   34.3 B2u   1  6h5-         6.717200     1.000000
   35.3 B2u   1  6h1-         2.748500     1.000000
   36.3 B2u   1  6h3-         2.748500     1.000000
   37.3 B2u   1  6h5-         2.748500     1.000000
   38.3 B2u   1  6h1-         1.124610     1.000000
   39.3 B2u   1  6h3-         1.124610     1.000000
   40.3 B2u   1  6h5-         1.124610     1.000000
    1.4 B1g   1  3d2-       371.566000     1.000000
    2.4 B1g   1  3d2-       110.115000     1.000000
    3.4 B1g   1  3d2-        42.425500     1.000000
    4.4 B1g   1  3d2-        18.336900     1.000000
    5.4 B1g   1  3d2-         8.457300     1.000000
    6.4 B1g   1  3d2-         4.041790     1.000000
    7.4 B1g   1  3d2-         1.926030     1.000000
    8.4 B1g   1  3d2-         0.894281     1.000000
    9.4 B1g   1  3d2-         0.397988     1.000000
   10.4 B1g   1  3d2-         0.166500     1.000000
   11.4 B1g   1  3d2-         0.063025     1.000000
   12.4 B1g   1  3d2-         6.274800     1.000000
   13.4 B1g   1  3d2-         3.309700     1.000000
   14.4 B1g   1  3d2-         0.023860     1.000000
   15.4 B1g   1  5g2-         7.337700     1.000000
   16.4 B1g   1  5g4-         7.337700     1.000000
   17.4 B1g   1  5g2-         3.225400     1.000000
   18.4 B1g   1  5g4-         3.225400     1.000000
   19.4 B1g   1  5g2-         1.251000     1.000000
   20.4 B1g   1  5g4-         1.251000     1.000000
   21.4 B1g   1  5g2-         0.485210     1.000000
   22.4 B1g   1  5g4-         0.485210     1.000000
    1.5 B1u   1  2pz      41961.400000     1.000000
    2.5 B1u   1  2pz       9928.306000     1.000000
    3.5 B1u   1  2pz       3224.971000     1.000000
    4.5 B1u   1  2pz       1235.293000     1.000000
    5.5 B1u   1  2pz        525.846900     1.000000
    6.5 B1u   1  2pz        240.976200     1.000000
    7.5 B1u   1  2pz        116.641800     1.000000
    8.5 B1u   1  2pz         58.848340     1.000000
    9.5 B1u   1  2pz         30.529100     1.000000
   10.5 B1u   1  2pz         16.169430     1.000000
   11.5 B1u   1  2pz          8.664236     1.000000
   12.5 B1u   1  2pz          4.591943     1.000000
   13.5 B1u   1  2pz          2.381048     1.000000
   14.5 B1u   1  2pz          1.206246     1.000000
   15.5 B1u   1  2pz          0.588822     1.000000
   16.5 B1u   1  2pz          0.224893     1.000000
   17.5 B1u   1  2pz          0.090448     1.000000
   18.5 B1u   1  2pz          0.035820     1.000000
   19.5 B1u   1  2pz          9.415000     1.000000
   20.5 B1u   1  2pz          2.575800     1.000000
   21.5 B1u   1  2pz          0.014190     1.000000
   22.5 B1u   1  4f0          8.972400     1.000000
   23.5 B1u   1  4f2+         8.972400     1.000000
   24.5 B1u   1  4f0          3.777300     1.000000
   25.5 B1u   1  4f2+         3.777300     1.000000
   26.5 B1u   1  4f0          1.590200     1.000000
   27.5 B1u   1  4f2+         1.590200     1.000000
   28.5 B1u   1  4f0          0.536300     1.000000
   29.5 B1u   1  4f2+         0.536300     1.000000
   30.5 B1u   1  4f0          0.180870     1.000000
   31.5 B1u   1  4f2+         0.180870     1.000000
   32.5 B1u   1  6h2+         6.717200     1.000000
   33.5 B1u   1  6h4+         6.717200     1.000000
   34.5 B1u   1  6h0          6.717200     1.000000
   35.5 B1u   1  6h2+         2.748500     1.000000
   36.5 B1u   1  6h4+         2.748500     1.000000
   37.5 B1u   1  6h0          2.748500     1.000000
   38.5 B1u   1  6h2+         1.124610     1.000000
   39.5 B1u   1  6h4+         1.124610     1.000000
   40.5 B1u   1  6h0          1.124610     1.000000
    1.6 B2g   1  3d1+       371.566000     1.000000
    2.6 B2g   1  3d1+       110.115000     1.000000
    3.6 B2g   1  3d1+        42.425500     1.000000
    4.6 B2g   1  3d1+        18.336900     1.000000
    5.6 B2g   1  3d1+         8.457300     1.000000
    6.6 B2g   1  3d1+         4.041790     1.000000
    7.6 B2g   1  3d1+         1.926030     1.000000
    8.6 B2g   1  3d1+         0.894281     1.000000
    9.6 B2g   1  3d1+         0.397988     1.000000
   10.6 B2g   1  3d1+         0.166500     1.000000
   11.6 B2g   1  3d1+         0.063025     1.000000
   12.6 B2g   1  3d1+         6.274800     1.000000
   13.6 B2g   1  3d1+         3.309700     1.000000
   14.6 B2g   1  3d1+         0.023860     1.000000
   15.6 B2g   1  5g1+         7.337700     1.000000
   16.6 B2g   1  5g3+         7.337700     1.000000
   17.6 B2g   1  5g1+         3.225400     1.000000
   18.6 B2g   1  5g3+         3.225400     1.000000
   19.6 B2g   1  5g1+         1.251000     1.000000
   20.6 B2g   1  5g3+         1.251000     1.000000
   21.6 B2g   1  5g1+         0.485210     1.000000
   22.6 B2g   1  5g3+         0.485210     1.000000
    1.7 B3g   1  3d1-       371.566000     1.000000
    2.7 B3g   1  3d1-       110.115000     1.000000
    3.7 B3g   1  3d1-        42.425500     1.000000
    4.7 B3g   1  3d1-        18.336900     1.000000
    5.7 B3g   1  3d1-         8.457300     1.000000
    6.7 B3g   1  3d1-         4.041790     1.000000
    7.7 B3g   1  3d1-         1.926030     1.000000
    8.7 B3g   1  3d1-         0.894281     1.000000
    9.7 B3g   1  3d1-         0.397988     1.000000
   10.7 B3g   1  3d1-         0.166500     1.000000
   11.7 B3g   1  3d1-         0.063025     1.000000
   12.7 B3g   1  3d1-         6.274800     1.000000
   13.7 B3g   1  3d1-         3.309700     1.000000
   14.7 B3g   1  3d1-         0.023860     1.000000
   15.7 B3g   1  5g1-         7.337700     1.000000
   16.7 B3g   1  5g3-         7.337700     1.000000
   17.7 B3g   1  5g1-         3.225400     1.000000
   18.7 B3g   1  5g3-         3.225400     1.000000
   19.7 B3g   1  5g1-         1.251000     1.000000
   20.7 B3g   1  5g3-         1.251000     1.000000
   21.7 B3g   1  5g1-         0.485210     1.000000
   22.7 B3g   1  5g3-         0.485210     1.000000
    1.8 Au    1  4f2-         8.972400     1.000000
    2.8 Au    1  4f2-         3.777300     1.000000
    3.8 Au    1  4f2-         1.590200     1.000000
    4.8 Au    1  4f2-         0.536300     1.000000
    5.8 Au    1  4f2-         0.180870     1.000000
    6.8 Au    1  6h4-         6.717200     1.000000
    7.8 Au    1  6h2-         6.717200     1.000000
    8.8 Au    1  6h4-         2.748500     1.000000
    9.8 Au    1  6h2-         2.748500     1.000000
   10.8 Au    1  6h4-         1.124610     1.000000
   11.8 Au    1  6h2-         1.124610     1.000000

 NUCLEAR CHARGE:                   17
 NUMBER OF PRIMITIVE AOS:         345
 NUMBER OF SYMMETRY AOS:          262
 NUMBER OF CONTRACTIONS:          262   (  65Ag  +  40B3u +  40B2u +  22B1g +  40B1u +  22B2g +  22B3g +  11Au  )
 NUMBER OF CORE ORBITALS:           4   (   1Ag  +   1B3u +   1B2u +   0B1g +   1B1u +   0B2g +   0B3g +   0Au  )
 NUMBER OF VALENCE ORBITALS:        6   (   3Ag  +   0B3u +   0B2u +   1B1g +   0B1u +   1B2g +   1B3g +   0Au  )


 NUCLEAR REPULSION ENERGY    0.00000000

 EXTRA SYMMETRY OF AOS IN SYMMETRY 1:   1 1 1 1 1 1 1 1 1 1   1 1 1 1 1 1 1 1 1 1   1 1 1 1 1 2 3 2 3 2   3 2 3 2 3 2 3 2 3 2
                                        3 2 3 2 3 2 3 2 3 2   3 2 3 4 5 6 4 5 6 4   5 6 4 5 6
 EXTRA SYMMETRY OF AOS IN SYMMETRY 2:   1 1 1 1 1 1 1 1 1 1   1 1 1 1 1 1 1 1 1 1   1 2 3 2 3 2 3 2 3 2   3 4 5 6 4 5 6 4 5 6
 EXTRA SYMMETRY OF AOS IN SYMMETRY 3:   1 1 1 1 1 1 1 1 1 1   1 1 1 1 1 1 1 1 1 1   1 2 3 2 3 2 3 2 3 2   3 4 5 6 4 5 6 4 5 6
 EXTRA SYMMETRY OF AOS IN SYMMETRY 4:   1 1 1 1 1 1 1 1 1 1   1 1 1 1 2 3 2 3 2 3   2 3
 EXTRA SYMMETRY OF AOS IN SYMMETRY 5:   1 1 1 1 1 1 1 1 1 1   1 1 1 1 1 1 1 1 1 1   1 2 3 2 3 2 3 2 3 2   3 4 5 6 4 5 6 4 5 6
 EXTRA SYMMETRY OF AOS IN SYMMETRY 6:   1 1 1 1 1 1 1 1 1 1   1 1 1 1 2 3 2 3 2 3   2 3
 EXTRA SYMMETRY OF AOS IN SYMMETRY 7:   1 1 1 1 1 1 1 1 1 1   1 1 1 1 2 3 2 3 2 3   2 3
 EXTRA SYMMETRY OF AOS IN SYMMETRY 8:   1 1 1 1 1 2 3 2 3 2   3

 Eigenvalues of metric

         1 0.618E-06 0.124E-04 0.150E-04 0.150E-04 0.287E-03 0.608E-03 0.608E-03 0.822E-03
         2 0.482E-06 0.464E-05 0.495E-03 0.197E-02 0.522E-02 0.119E-01 0.227E-01 0.387E-01
         3 0.482E-06 0.464E-05 0.495E-03 0.197E-02 0.522E-02 0.119E-01 0.227E-01 0.387E-01
         4 0.150E-04 0.608E-03 0.973E-02 0.343E-01 0.701E-01 0.145E+00 0.177E+00 0.177E+00
         5 0.482E-06 0.464E-05 0.495E-03 0.197E-02 0.522E-02 0.119E-01 0.227E-01 0.387E-01
         6 0.150E-04 0.608E-03 0.973E-02 0.343E-01 0.701E-01 0.145E+00 0.177E+00 0.177E+00
         7 0.150E-04 0.608E-03 0.973E-02 0.343E-01 0.701E-01 0.145E+00 0.177E+00 0.177E+00
         8 0.116E+00 0.294E+00 0.294E+00 0.358E+00 0.784E+00 0.901E+00 0.901E+00 0.148E+01


 Contracted 2-electron integrals neglected if value below      1.0D-13
 AO integral compression algorithm  1   Integral accuracy      1.0D-13

     464.781 MB (compressed) written to integral file ( 47.7%)


 NUMBER OF SORTED TWO-ELECTRON INTEGRALS:   76744857.     BUFFER LENGTH:  32768
 NUMBER OF SEGMENTS:   5  SEGMENT LENGTH:   15998535      RECORD LENGTH: 524288

 Memory used in sort:      16.56 MW

 SORT1 READ   121794176. AND WROTE    46210845. INTEGRALS IN    135 RECORDS. CPU TIME:     4.29 SEC, REAL TIME:     5.61 SEC
 SORT2 READ    46210845. AND WROTE    76744857. INTEGRALS IN   1773 RECORDS. CPU TIME:     1.98 SEC, REAL TIME:     3.27 SEC

 FILE SIZES:   FILE 1:   485.5 MBYTE,  FILE 4:   566.3 MBYTE,   TOTAL:   1051.8 MBYTE

 OPERATOR DM      FOR CENTER  0  COORDINATES:    0.000000    0.000000    0.000000
 OPERATOR EKIN    FOR CENTER  0  COORDINATES:    0.000000    0.000000    0.000000
 OPERATOR POT     FOR CENTER  0  COORDINATES:    0.000000    0.000000    0.000000


 **********************************************************************************************************************************
 DATASETS  * FILE   NREC   LENGTH (MB)   RECORD NAMES
              1      20      284.21       500      610      700      900      950      970     1000      129      960     1100   
                                          VAR    BASINP    GEOM    SYMINP    ZMAT    AOBASIS   BASIS     P2S    ABASIS      S 
                                         1400     1410     1420     1200     1210     1080     1600     1650     1300     1700   
                                         EKIN       V       ECP      H0       H01     AOSYM     SMH    MOLCAS    ERIS     OPER   

 PROGRAMS   *        TOTAL       INT
 CPU TIMES  *        45.82     45.67
 REAL TIME  *        52.55 SEC
 DISK USED  *         1.05 GB      
 **********************************************************************************************************************************


 PROGRAM * RHF-SCF (OPEN SHELL)       Authors: W. Meyer, H.-J. Werner


 NUMBER OF ELECTRONS:      10+    7-    SPACE SYMMETRY=1    SPIN SYMMETRY: Quartet 
 CONVERGENCE THRESHOLDS:    1.00E-05 (Density)    1.00E-07 (Energy)
 MAX. NUMBER OF ITERATIONS:       60
 INTERPOLATION TYPE:            DIIS
 INTERPOLATION STEPS:              2 (START)      1 (STEP)
 LEVEL SHIFTS:                 -0.60 (CLOSED) -0.30 (OPEN) 


 Singly occupied orbitals:      1.4       1.6       1.7
 
 Extra symmetries of mos in symmetry 1:   1   1   3   2

   Atom=CO basis=ECP10MDF_GUESS    lmin=0  lmax=2

 Orbital guess generated from atomic densities. Full valence occupancy:    4   1   1   1   1   1   1   0


 Molecular orbital dump at record        4202.2

 ITERATION    DDIFF          GRAD             ENERGY        2-EL.EN.            DIPOLE MOMENTS         DIIS   ORB.
    1      0.000D+00      0.000D+00      -144.89183426    219.307428    0.00000    0.00000    0.00000    0    start
    2      0.000D+00      0.145D-01      -144.93257955    226.182249    0.00000    0.00000    0.00000    1    diag,B
    3      0.649D-02      0.103D-01      -144.94336459    224.441480    0.00000    0.00000    0.00000    2    diag,B
    4      0.204D-02      0.193D-02      -144.94429749    224.356124    0.00000    0.00000    0.00000    3    diag,B
    5      0.186D-02      0.353D-03      -144.94439660    224.346250    0.00000    0.00000    0.00000    4    diag,B
    6      0.787D-03      0.111D-03      -144.94441533    224.315521    0.00000    0.00000    0.00000    5    diag,B
    7      0.179D-03      0.434D-04      -144.94441965    224.298428    0.00000    0.00000    0.00000    6    fixocc
    8      0.178D-03      0.167D-04      -144.94442040    224.291422    0.00000    0.00000    0.00000    7    diag,B
    9      0.111D-03      0.589D-05      -144.94442050    224.289421    0.00000    0.00000    0.00000    8    diag,B
   10      0.579D-04      0.225D-05      -144.94442052    224.289076    0.00000    0.00000    0.00000    9    orth
   11      0.838D-05      0.959D-06      -144.94442052    224.289015    0.00000    0.00000    0.00000    0    orth

 Final alpha occupancy:   4   1   1   1   1   1   1   0
 Final beta  occupancy:   4   1   1   0   1   0   0   0

 !RHF STATE 1.1 Energy               -144.944420516954
 Nuclear energy                         0.00000000
 One-electron energy                 -257.08892808
 Two-electron energy                  112.14450756
 Virial quotient                       -1.62192313
 !RHF STATE 1.1 Dipole moment           0.00000000     0.00000000     0.00000000
 Dipole moment /Debye                   0.00000000     0.00000000     0.00000000
 

 !RHF expec          <1.1|EKIN|1.1>    89.365776900263
 
 !RHF expec           <1.1|POT|1.1>   -21.247795502077

 ELECTRON ORBITALS
 =================


   Orb  Occ    Energy  Couls-En    Coefficients

                                   1 1s      1 1s      1 1s      1 1s      1 1s      1 1s      1 1s      1 1s      1 1s      1 1s   
                                   1 1s      1 1s      1 1s      1 1s      1 1s      1 1s      1 1s      1 1s      1 1s      1 1s   
                                   1 1s      1 1s      1 1s      1 1s      1 1s      1 3d0     1 3d2+    1 3d0     1 3d2+    1 3d0  
                                   1 3d2+    1 3d0     1 3d2+    1 3d0     1 3d2+    1 3d0     1 3d2+    1 3d0     1 3d2+    1 3d0  
                                   1 3d2+    1 3d0     1 3d2+    1 3d0     1 3d2+    1 3d0     1 3d2+    1 3d0     1 3d2+    1 3d0  
                                   1 3d2+    1 3d0     1 3d2+    1 5g0     1 5g4+    1 5g2+    1 5g0     1 5g4+    1 5g2+    1 5g0  
                                   1 5g4+    1 5g2+    1 5g0     1 5g4+    1 5g2+ 

   1.1   2    -4.7048  -24.1069  0.000000  0.000000  0.000000  0.000001  0.000001  0.000009  0.000006  0.000080  0.000005  0.000562
                                -0.000471  0.003507 -0.012635  0.097183 -0.163551 -0.678692  0.259503  0.626807  0.294835  0.007900
                                -0.003137  0.001209  0.338093  0.091216 -0.000308  0.000000  0.000000 -0.000000 -0.000000  0.000000
                                 0.000000 -0.000000 -0.000000  0.000000  0.000000  0.000000  0.000000 -0.000000  0.000000  0.000000
                                -0.000000 -0.000000  0.000000  0.000000 -0.000000 -0.000000  0.000000 -0.000000 -0.000000  0.000000
                                -0.000000  0.000000 -0.000000  0.000206  0.000174 -0.000000  0.000269  0.000227  0.000000  0.000734
                                 0.000620  0.000000  0.000206  0.000174 -0.000000

   2.1   2    -0.2724   -6.4910 -0.000000 -0.000000 -0.000000 -0.000000 -0.000000 -0.000002 -0.000002 -0.000019 -0.000003 -0.000135
                                 0.000104 -0.000825  0.002947 -0.023566  0.043303  0.148254 -0.088331 -0.281899 -0.191198  0.354374
                                 0.574339  0.231958 -0.061923  0.045567 -0.001077 -0.000000  0.000000 -0.000000  0.000000 -0.000000
                                 0.000000 -0.000000  0.000000 -0.000000  0.000000 -0.000000  0.000000 -0.000000  0.000000 -0.000000
                                 0.000000 -0.000000  0.000000 -0.000000  0.000000 -0.000000  0.000000  0.000000  0.000000 -0.000000
                                 0.000000 -0.000000  0.000000 -0.000006 -0.000005 -0.000000  0.000135  0.000114 -0.000000  0.000045
                                 0.000038 -0.000000 -0.000273 -0.000230 -0.000000

   3.1   2    -0.6249  -14.8961 -0.000000  0.000000 -0.000000 -0.000000  0.000000 -0.000000  0.000000 -0.000000  0.000000 -0.000000
                                 0.000000  0.000000 -0.000000  0.000000 -0.000000  0.000000  0.000000  0.000000  0.000000 -0.000000
                                 0.000000 -0.000000 -0.000000 -0.000000  0.000000 -0.000034  0.000206 -0.000344  0.002104 -0.002730
                                 0.016685 -0.010180  0.062224 -0.022798  0.139344 -0.037751  0.230736 -0.050165  0.306609 -0.048087
                                 0.293910 -0.032379  0.197902 -0.011558  0.070646 -0.000787  0.004807 -0.001978  0.012091 -0.002318
                                 0.014167 -0.000003  0.000019 -0.000012  0.000014 -0.000112 -0.000022  0.000026 -0.000207 -0.000049
                                 0.000058 -0.000465 -0.000053  0.000063 -0.000500

   4.1   2    -0.6249  -14.8961 -0.000000  0.000000 -0.000000  0.000000 -0.000000  0.000000 -0.000000  0.000000 -0.000000  0.000000
                                -0.000000  0.000000 -0.000000  0.000000 -0.000000  0.000000  0.000000 -0.000000  0.000000 -0.000000
                                 0.000000 -0.000000 -0.000000  0.000000  0.000000 -0.000206 -0.000034 -0.002104 -0.000344 -0.016685
                                -0.002730 -0.062224 -0.010180 -0.139344 -0.022798 -0.230736 -0.037751 -0.306609 -0.050165 -0.293910
                                -0.048087 -0.197902 -0.032379 -0.070646 -0.011558 -0.004807 -0.000787 -0.012091 -0.001978 -0.014167
                                -0.002318 -0.000019 -0.000003 -0.000073  0.000086  0.000018 -0.000134  0.000158  0.000034 -0.000300
                                 0.000355  0.000076 -0.000323  0.000382  0.000082

   5.1   0     0.0284   -1.8447  0.000000 -0.000000  0.000000 -0.000000  0.000000 -0.000001  0.000005 -0.000010  0.000043 -0.000090
                                 0.000298 -0.000611  0.001214 -0.000648  0.014293 -0.452851 -0.218396 -0.689469  0.188042 -0.397607
                                 0.781571 -2.265654  0.497331  0.803714  2.330084 -0.000000 -0.000000 -0.000000 -0.000000 -0.000000
                                -0.000000 -0.000000 -0.000000 -0.000000 -0.000000 -0.000000 -0.000000 -0.000000 -0.000000  0.000000
                                 0.000000 -0.000000 -0.000000  0.000000  0.000000 -0.000000 -0.000000  0.000000  0.000000  0.000000
                                 0.000000  0.000000  0.000000 -0.000027 -0.000023 -0.000000 -0.000054 -0.000046  0.000000  0.000137
                                 0.000115 -0.000000  0.000283  0.000239  0.000000

   6.1   0     0.0741   -1.8710  0.000000  0.000000  0.000000 -0.000000  0.000000 -0.000000  0.000000  0.000000 -0.000000  0.000000
                                -0.000000  0.000000 -0.000000  0.000000 -0.000000  0.000000  0.000000  0.000000 -0.000000  0.000000
                                -0.000000  0.000000 -0.000000 -0.000000 -0.000000  0.000002 -0.000012  0.000002 -0.000014  0.000103
                                -0.000756  0.000043 -0.000318  0.003337 -0.024426  0.020513 -0.150154  0.008222 -0.060185 -0.004294
                                 0.031433  0.008927 -0.065346 -0.018091  0.132423  0.045879 -0.335833 -0.007310  0.053509 -0.019327
                                 0.141472 -0.160071  1.171718 -0.000001  0.000001 -0.000012 -0.000003  0.000003 -0.000030 -0.000004
                                 0.000004 -0.000041  0.000004 -0.000005  0.000050

                                   1 2px     1 2px     1 2px     1 2px     1 2px     1 2px     1 2px     1 2px     1 2px     1 2px  
                                   1 2px     1 2px     1 2px     1 2px     1 2px     1 2px     1 2px     1 2px     1 2px     1 2px  
                                   1 2px     1 4f1+    1 4f3+    1 4f1+    1 4f3+    1 4f1+    1 4f3+    1 4f1+    1 4f3+    1 4f1+ 
                                   1 4f3+    1 6h1+    1 6h3+    1 6h5+    1 6h1+    1 6h3+    1 6h5+    1 6h1+    1 6h3+    1 6h5+ 


   1.2   2    -3.0292  -20.5937  0.000000  0.000001  0.000001  0.000024  0.000009  0.000302 -0.000130  0.002505  0.006534 -0.073031
                                -0.099205  0.212478  0.453084  0.375384  0.158778  0.014837 -0.000890  0.000623  0.055063 -0.048099
                                -0.000175 -0.000596  0.000769 -0.001225  0.001581 -0.002457  0.003173 -0.001620  0.002092 -0.000057
                                 0.000074 -0.000092  0.000013 -0.000095 -0.000174  0.000023 -0.000178  0.000057 -0.000017  0.000063

   2.2   0     0.0216   -2.3848  0.000000 -0.000000  0.000001 -0.000006  0.000015 -0.000070  0.000169 -0.000658  0.001303 -0.003498
                                -0.123438  0.038207  0.344105 -0.081410  0.031854 -0.006666  0.271662 -0.201098  0.113654 -0.373618
                                 1.036450 -0.000011  0.000015 -0.000069  0.000089 -0.000035  0.000045  0.000159 -0.000205  0.000234
                                -0.000302  0.000020 -0.000003  0.000021  0.000041 -0.000006  0.000042 -0.000137  0.000019 -0.000141

   3.2   0     0.0698   -3.1031 -0.000000  0.000000 -0.000003  0.000009 -0.000045  0.000112 -0.000443  0.001126 -0.005488  0.031464
                                 0.378810 -0.176027 -1.120173  0.097802 -0.131847  0.278905 -0.203271  1.636072 -0.339131  1.076558
                                -1.302663 -0.000020  0.000026 -0.000124  0.000160 -0.000059  0.000077  0.000309 -0.000400  0.000424
                                -0.000547  0.000036 -0.000005  0.000037  0.000073 -0.000011  0.000076 -0.000249  0.000034 -0.000256

                                   1 2py     1 2py     1 2py     1 2py     1 2py     1 2py     1 2py     1 2py     1 2py     1 2py  
                                   1 2py     1 2py     1 2py     1 2py     1 2py     1 2py     1 2py     1 2py     1 2py     1 2py  
                                   1 2py     1 4f1-    1 4f3-    1 4f1-    1 4f3-    1 4f1-    1 4f3-    1 4f1-    1 4f3-    1 4f1- 
                                   1 4f3-    1 6h1-    1 6h3-    1 6h5-    1 6h1-    1 6h3-    1 6h5-    1 6h1-    1 6h3-    1 6h5- 


   1.3   2    -3.0292  -20.5937  0.000000  0.000001  0.000001  0.000024  0.000009  0.000302 -0.000130  0.002505  0.006534 -0.073031
                                -0.099205  0.212478  0.453084  0.375384  0.158778  0.014837 -0.000890  0.000623  0.055063 -0.048099
                                -0.000175 -0.000596 -0.000769 -0.001225 -0.001581 -0.002457 -0.003173 -0.001620 -0.002092 -0.000057
                                -0.000074 -0.000092 -0.000013 -0.000095 -0.000174 -0.000023 -0.000178  0.000057  0.000017  0.000063

   2.3   0     0.0216   -2.3848  0.000000 -0.000000  0.000001 -0.000006  0.000015 -0.000070  0.000169 -0.000658  0.001303 -0.003498
                                -0.123438  0.038207  0.344105 -0.081410  0.031854 -0.006666  0.271662 -0.201098  0.113654 -0.373618
                                 1.036450 -0.000011 -0.000015 -0.000069 -0.000089 -0.000035 -0.000045  0.000159  0.000205  0.000234
                                 0.000302  0.000020  0.000003  0.000021  0.000041  0.000006  0.000042 -0.000137 -0.000019 -0.000141

   3.3   0     0.0698   -3.1031 -0.000000  0.000000 -0.000003  0.000009 -0.000045  0.000112 -0.000443  0.001126 -0.005488  0.031464
                                 0.378810 -0.176027 -1.120173  0.097802 -0.131847  0.278905 -0.203271  1.636072 -0.339131  1.076558
                                -1.302663 -0.000020 -0.000026 -0.000124 -0.000160 -0.000059 -0.000077  0.000309  0.000400  0.000424
                                 0.000547  0.000036  0.000005  0.000037  0.000073  0.000011  0.000076 -0.000249 -0.000034 -0.000256

                                   1 3d2-    1 3d2-    1 3d2-    1 3d2-    1 3d2-    1 3d2-    1 3d2-    1 3d2-    1 3d2-    1 3d2- 
                                   1 3d2-    1 3d2-    1 3d2-    1 3d2-    1 5g2-    1 5g4-    1 5g2-    1 5g4-    1 5g2-    1 5g4- 
                                   1 5g2-    1 5g4- 

   1.4   +    -0.7235  -15.1821  0.000212  0.002171  0.017215  0.064165  0.143806  0.239157  0.318454  0.299061  0.186054  0.055505
                                 0.002203  0.012626  0.014937  0.000171  0.000202 -0.000000  0.000617  0.000000  0.000771  0.000000
                                 0.000216  0.000000

   2.4   0     0.0740   -1.8712 -0.000012 -0.000006 -0.000700 -0.000091 -0.024094 -0.150430 -0.059521  0.032849 -0.064727  0.134419
                                -0.337234  0.053946  0.142574  1.181587 -0.000005  0.000000 -0.000014  0.000000 -0.000019 -0.000000
                                 0.000026  0.000000

   3.4   0     0.2365   -2.9065 -0.000007 -0.000403 -0.001270 -0.012190  0.043234  0.399730  0.116678 -0.155333  0.177717 -0.378656
                                 1.599380 -0.162121 -0.426205 -0.816218 -0.000026  0.000000 -0.000064  0.000000 -0.000088 -0.000000
                                 0.000164  0.000000

                                   1 2pz     1 2pz     1 2pz     1 2pz     1 2pz     1 2pz     1 2pz     1 2pz     1 2pz     1 2pz  
                                   1 2pz     1 2pz     1 2pz     1 2pz     1 2pz     1 2pz     1 2pz     1 2pz     1 2pz     1 2pz  
                                   1 2pz     1 4f0     1 4f2+    1 4f0     1 4f2+    1 4f0     1 4f2+    1 4f0     1 4f2+    1 4f0  
                                   1 4f2+    1 6h2+    1 6h4+    1 6h0     1 6h2+    1 6h4+    1 6h0     1 6h2+    1 6h4+    1 6h0  


   1.5   2    -3.0292  -20.5937  0.000000  0.000001  0.000001  0.000024  0.000009  0.000302 -0.000130  0.002505  0.006534 -0.073031
                                -0.099205  0.212478  0.453084  0.375384  0.158778  0.014837 -0.000890  0.000623  0.055063 -0.048099
                                -0.000175  0.000973 -0.000000  0.002000 -0.000000  0.004013  0.000000  0.002646  0.000000  0.000093
                                -0.000000 -0.000000 -0.000062 -0.000118 -0.000000 -0.000117 -0.000221 -0.000000  0.000031  0.000081

   2.5   0     0.0216   -2.3848  0.000000 -0.000000  0.000001 -0.000006  0.000015 -0.000070  0.000169 -0.000658  0.001303 -0.003498
                                -0.123438  0.038207  0.344105 -0.081410  0.031854 -0.006666  0.271662 -0.201098  0.113654 -0.373618
                                 1.036450  0.000018  0.000000  0.000113  0.000000  0.000056  0.000000 -0.000259  0.000000 -0.000382
                                 0.000000 -0.000000  0.000013  0.000026  0.000000  0.000027  0.000053 -0.000000 -0.000091 -0.000175

   3.5   0     0.0698   -3.1031 -0.000000  0.000000 -0.000003  0.000009 -0.000045  0.000112 -0.000443  0.001126 -0.005488  0.031464
                                 0.378810 -0.176027 -1.120173  0.097802 -0.131847  0.278905 -0.203271  1.636072 -0.339131  1.076558
                                -1.302663  0.000033 -0.000000  0.000202 -0.000000  0.000097 -0.000000 -0.000505 -0.000000 -0.000692
                                 0.000000 -0.000000  0.000024  0.000046  0.000000  0.000048  0.000094 -0.000000 -0.000166 -0.000318

                                   1 3d1+    1 3d1+    1 3d1+    1 3d1+    1 3d1+    1 3d1+    1 3d1+    1 3d1+    1 3d1+    1 3d1+ 
                                   1 3d1+    1 3d1+    1 3d1+    1 3d1+    1 5g1+    1 5g3+    1 5g1+    1 5g3+    1 5g1+    1 5g3+ 
                                   1 5g1+    1 5g3+ 

   1.6   +    -0.7235  -15.1821  0.000212  0.002171  0.017215  0.064165  0.143806  0.239157  0.318454  0.299061  0.186054  0.055505
                                 0.002203  0.012626  0.014937  0.000171 -0.000071 -0.000189 -0.000218 -0.000577 -0.000273 -0.000721
                                -0.000077 -0.000202

   2.6   0     0.0740   -1.8712 -0.000012 -0.000006 -0.000700 -0.000091 -0.024094 -0.150430 -0.059521  0.032849 -0.064727  0.134419
                                -0.337234  0.053946  0.142574  1.181587  0.000002  0.000005  0.000005  0.000013  0.000007  0.000018
                                -0.000009 -0.000025

   3.6   0     0.2365   -2.9065 -0.000007 -0.000403 -0.001270 -0.012190  0.043234  0.399730  0.116678 -0.155333  0.177717 -0.378656
                                 1.599380 -0.162121 -0.426205 -0.816218  0.000009  0.000024  0.000023  0.000060  0.000031  0.000082
                                -0.000058 -0.000153

                                   1 3d1-    1 3d1-    1 3d1-    1 3d1-    1 3d1-    1 3d1-    1 3d1-    1 3d1-    1 3d1-    1 3d1- 
                                   1 3d1-    1 3d1-    1 3d1-    1 3d1-    1 5g1-    1 5g3-    1 5g1-    1 5g3-    1 5g1-    1 5g3- 
                                   1 5g1-    1 5g3- 

   1.7   +    -0.7235  -15.1821  0.000212  0.002171  0.017215  0.064165  0.143806  0.239157  0.318454  0.299061  0.186054  0.055505
                                 0.002203  0.012626  0.014937  0.000171 -0.000071  0.000189 -0.000218  0.000577 -0.000273  0.000721
                                -0.000077  0.000202

   2.7   0     0.0740   -1.8712 -0.000012 -0.000006 -0.000700 -0.000091 -0.024094 -0.150430 -0.059521  0.032849 -0.064727  0.134419
                                -0.337234  0.053946  0.142574  1.181587  0.000002 -0.000005  0.000005 -0.000013  0.000007 -0.000018
                                -0.000009  0.000025

   3.7   0     0.2365   -2.9065 -0.000007 -0.000403 -0.001270 -0.012190  0.043234  0.399730  0.116678 -0.155333  0.177717 -0.378656
                                 1.599380 -0.162121 -0.426205 -0.816218  0.000009 -0.000024  0.000023 -0.000060  0.000031 -0.000082
                                -0.000058  0.000153

                                   1 4f2-    1 4f2-    1 4f2-    1 4f2-    1 4f2-    1 6h4-    1 6h2-    1 6h4-    1 6h2-    1 6h4- 
                                   1 6h2- 

   1.8   0     0.6909   -3.6053  0.004123 -0.011740  0.049009 -0.119247  1.054908  0.000000 -0.000000 -0.000000  0.000000  0.000000
                                -0.000000

   2.8   0     2.0671   -4.2065 -0.006283  0.071292 -0.070117  1.207181 -0.558256  0.000000 -0.000000 -0.000000  0.000000  0.000000
                                -0.000000

 HOMO      4.1    -0.624904 =     -17.0045eV
 LUMO      2.2     0.021583 =       0.5873eV
 LUMO-HOMO         0.646487 =      17.5918eV


 **********************************************************************************************************************************
 DATASETS  * FILE   NREC   LENGTH (MB)   RECORD NAMES
              1      20      284.21       500      610      700      900      950      970     1000      129      960     1100   
                                          VAR    BASINP    GEOM    SYMINP    ZMAT    AOBASIS   BASIS     P2S    ABASIS      S 
                                         1400     1410     1420     1200     1210     1080     1600     1650     1300     1700   
                                         EKIN       V       ECP      H0       H01     AOSYM     SMH    MOLCAS    ERIS     OPER   

              2       4        3.09       700     1000      520     4202   
                                         GEOM     BASIS   MCVARS     RHF  

 PROGRAMS   *        TOTAL       RHF       INT
 CPU TIMES  *        49.85      4.03     45.67
 REAL TIME  *        57.02 SEC
 DISK USED  *         1.05 GB      
 **********************************************************************************************************************************


 PROGRAM * POP (Mulliken population analysis)

 
 Density matrix read from record         4202.2  Type=RHF/CHARGE (state 1.1)
 
 Population analysis by basis function type

 Unique atom        s        p        d        f        g    Total    Charge
   1  CO      4.00000  5.99966  6.99999  0.00034  0.00001 17.00000  - 0.00000


 **********************************************************************************************************************************
 DATASETS  * FILE   NREC   LENGTH (MB)   RECORD NAMES
              1      20      284.21       500      610      700      900      950      970     1000      129      960     1100   
                                          VAR    BASINP    GEOM    SYMINP    ZMAT    AOBASIS   BASIS     P2S    ABASIS      S 
                                         1400     1410     1420     1200     1210     1080     1600     1650     1300     1700   
                                         EKIN       V       ECP      H0       H01     AOSYM     SMH    MOLCAS    ERIS     OPER   

              2       4        3.09       700     1000      520     4202   
                                         GEOM     BASIS   MCVARS     RHF  

 PROGRAMS   *        TOTAL       POP       RHF       INT
 CPU TIMES  *        49.85      0.00      4.03     45.67
 REAL TIME  *        57.04 SEC
 DISK USED  *         1.05 GB      
 **********************************************************************************************************************************


 PROGRAM * MULTI (Direct Multiconfiguration SCF)       Authors: P.J. Knowles, H.-J. Werner (1984)     S.T. Elbert (1988)


 Number of closed-shell orbitals:   5 (   2   1   1   0   1   0   0   0 )
 Number of active  orbitals:        5 (   2   0   0   1   0   1   1   0 )
 Number of external orbitals:     252 (  61  39  39  21  39  21  21  11 )

 State symmetry 1

 Number of electrons:     7    Spin symmetry=Quartet   Space symmetry=1
 Number of states:        1
 Number of CSFs:          1   (1 determinants, 10 intermediate states)

 State symmetry 2

 Number of electrons:     7    Spin symmetry=Quartet   Space symmetry=4
 Number of states:        3
 Number of CSFs:          3   (3 determinants, 10 intermediate states)

 State symmetry 3

 Number of electrons:     7    Spin symmetry=Quartet   Space symmetry=6
 Number of states:        3
 Number of CSFs:          3   (3 determinants, 10 intermediate states)

 State symmetry 4

 Number of electrons:     7    Spin symmetry=Quartet   Space symmetry=7
 Number of states:        3
 Number of CSFs:          3   (3 determinants, 10 intermediate states)

 Molecular orbitals read from record     4202.2  Type=RHF/CANONICAL (state 1.1)
 *** IN SYMMETRY 1 ORBITAL  1 SYMMETRY CONTAMINATION OF 0.101D-02 HAS BEEN REMOVED
 *** IN SYMMETRY 1 ORBITAL  2 SYMMETRY CONTAMINATION OF 0.412D-03 HAS BEEN REMOVED
 *** IN SYMMETRY 1 ORBITAL  3 SYMMETRY CONTAMINATION OF 0.141D+00 HAS BEEN REMOVED
 *** IN SYMMETRY 1 ORBITAL  4 SYMMETRY CONTAMINATION OF 0.142D+00 HAS BEEN REMOVED

 EXTRA SYMMETRY OF MOS IN SYMMETRY 1:   1 1 3 2 1 3 2 1 3 2   1 3 2 2 3 1 6 5 4 2   3 1 6 5 1 2 3 1 5 6   4 3 2 1 3 2 6 5 4 2
                                        3 1 2 3 1 1 2 3 1 2   3 1 1 3 2 1 1 1 1 1   1 1 1 1 4
 *** IN SYMMETRY 2 ORBITAL  1 SYMMETRY CONTAMINATION OF 0.947D-02 HAS BEEN REMOVED
 EXTRA SYMMETRY OF MOS IN SYMMETRY 2:   1 1 1 1 2 3 1 2 1 1   1 2 1 5 6 4 1 2 3 5   6 4 1 2 3 5 6 4 1 1   1 1 1 1 1 1 1 1 3 3
 *** IN SYMMETRY 3 ORBITAL  1 SYMMETRY CONTAMINATION OF 0.947D-02 HAS BEEN REMOVED
 EXTRA SYMMETRY OF MOS IN SYMMETRY 3:   1 1 1 1 2 3 1 2 1 1   1 2 1 5 6 4 1 2 3 5   6 4 1 2 3 5 6 4 1 1   1 1 1 1 1 1 1 1 3 3
 *** IN SYMMETRY 4 ORBITAL  1 SYMMETRY CONTAMINATION OF 0.133D-02 HAS BEEN REMOVED
 EXTRA SYMMETRY OF MOS IN SYMMETRY 4:   1 1 1 1 1 2 3 1 2 3   1 2 3 1 1 2 3 1 1 1   1 1
 *** IN SYMMETRY 5 ORBITAL  1 SYMMETRY CONTAMINATION OF 0.685D-02 HAS BEEN REMOVED
 EXTRA SYMMETRY OF MOS IN SYMMETRY 5:   1 1 1 1 3 2 1 3 1 1   1 3 2 5 4 6 1 3 2 5   4 6 1 3 2 5 4 6 1 1   1 1 1 1 1 1 1 1 1 2
 *** IN SYMMETRY 6 ORBITAL  1 SYMMETRY CONTAMINATION OF 0.171D-02 HAS BEEN REMOVED
 EXTRA SYMMETRY OF MOS IN SYMMETRY 6:   1 1 1 1 1 3 2 1 3 2   1 3 2 1 1 3 2 1 1 1   1 1
 *** IN SYMMETRY 7 ORBITAL  1 SYMMETRY CONTAMINATION OF 0.171D-02 HAS BEEN REMOVED
 EXTRA SYMMETRY OF MOS IN SYMMETRY 7:   1 1 1 1 1 3 2 1 3 2   1 3 2 1 1 3 2 1 1 1   1 1
 EXTRA SYMMETRY OF MOS IN SYMMETRY 8:   1 1 1 2 3 1 2 3 1 3   2

 Wavefunction dump at record             5202.2

 Convergence thresholds  0.10E-01 (gradient)  0.10E-05 (energy)  0.10E-02 (step length)

 Weight factors for state symmetry  1:    0.10000
 Weight factors for state symmetry  2:    0.10000   0.10000   0.10000
 Weight factors for state symmetry  3:    0.10000   0.10000   0.10000
 Weight factors for state symmetry  4:    0.10000   0.10000   0.10000

 Number of orbital rotations:      428   (     4 Core/Active    239 Core/Virtual   0 Active/Active    185 Active/Virtual)
 Total number of variables:        456


 ITER. MIC  NCI  NEG     ENERGY(VAR)     ENERGY(PROJ)   ENERGY CHANGE     GRAD(0)  GRAD(ORB)   GRAD(CI)     STEP       TIME

   1   58   16    0    -144.91307610    -144.97047988   -0.05740377    7.05227184 0.00000000 0.00000000  0.43D-01      1.22
   2   50   20    6    -128.68516962    -144.91516393  -16.22999431   *********** 0.00000000 0.00000000  0.16D-01      2.35
   3   35   20    0    -144.91516175    -144.91516180   -0.00000005    0.00063349 0.00000000 0.00000000  0.14D-03      3.41
   4   89   48    0    -144.91516180    -144.91516180    0.00000000    0.00000003 0.00000000 0.00000000  0.10D-07      4.67

 ** WVFN ****  CONVERGENCE REACHED, FINAL GRADIENT:  0.20D-10



 Results for state 1.1
 =====================

 !MCSCF STATE 1.1 Energy             -144.940483057039
 Nuclear energy                         0.00000000
 Kinetic energy                        89.30515177
 One electron energy                 -257.06252456
 Two electron energy                  112.12204151
 Virial ratio                           2.62298009

 !MCSCF STATE 1.1 Dipole moment         0.00000000     0.00000000     0.00000000
 Dipole moment /Debye                   0.00000000     0.00000000     0.00000000



 Results for state 1.4
 =====================

 !MCSCF STATE 1.4 Energy             -144.940483057039
 Nuclear energy                         0.00000000
 Kinetic energy                        89.30515177
 One electron energy                 -257.06252456
 Two electron energy                  112.12204151
 Virial ratio                           2.62298009

 !MCSCF STATE 1.4 Dipole moment         0.00000000     0.00000000     0.00000000
 Dipole moment /Debye                   0.00000000     0.00000000     0.00000000

 Results for state 2.4
 =====================

 !MCSCF STATE 2.4 Energy             -144.940483057039
 Nuclear energy                         0.00000000
 Kinetic energy                        89.30515177
 One electron energy                 -257.06252456
 Two electron energy                  112.12204151
 Virial ratio                           2.62298009

 !MCSCF STATE 2.4 Dipole moment         0.00000000     0.00000000     0.00000000
 Dipole moment /Debye                   0.00000000     0.00000000     0.00000000

 Results for state 3.4
 =====================

 !MCSCF STATE 3.4 Energy             -144.856078866685
 Nuclear energy                         0.00000000
 Kinetic energy                        89.30515177
 One electron energy                 -257.06252456
 Two electron energy                  112.20644570
 Virial ratio                           2.62203497

 !MCSCF STATE 3.4 Dipole moment         0.00000000     0.00000000     0.00000000
 Dipole moment /Debye                   0.00000000     0.00000000     0.00000000



 Results for state 1.6
 =====================

 !MCSCF STATE 1.6 Energy             -144.940483057039
 Nuclear energy                         0.00000000
 Kinetic energy                        89.30515177
 One electron energy                 -257.06252456
 Two electron energy                  112.12204151
 Virial ratio                           2.62298009

 !MCSCF STATE 1.6 Dipole moment         0.00000000     0.00000000     0.00000000
 Dipole moment /Debye                   0.00000000     0.00000000     0.00000000

 Results for state 2.6
 =====================

 !MCSCF STATE 2.6 Energy             -144.940483057039
 Nuclear energy                         0.00000000
 Kinetic energy                        89.30515177
 One electron energy                 -257.06252456
 Two electron energy                  112.12204151
 Virial ratio                           2.62298009

 !MCSCF STATE 2.6 Dipole moment         0.00000000     0.00000000     0.00000000
 Dipole moment /Debye                   0.00000000     0.00000000     0.00000000

 Results for state 3.6
 =====================

 !MCSCF STATE 3.6 Energy             -144.856078866685
 Nuclear energy                         0.00000000
 Kinetic energy                        89.30515177
 One electron energy                 -257.06252456
 Two electron energy                  112.20644570
 Virial ratio                           2.62203497

 !MCSCF STATE 3.6 Dipole moment         0.00000000     0.00000000     0.00000000
 Dipole moment /Debye                   0.00000000     0.00000000     0.00000000



 Results for state 1.7
 =====================

 !MCSCF STATE 1.7 Energy             -144.940483057039
 Nuclear energy                         0.00000000
 Kinetic energy                        89.30515177
 One electron energy                 -257.06252456
 Two electron energy                  112.12204151
 Virial ratio                           2.62298009

 !MCSCF STATE 1.7 Dipole moment         0.00000000     0.00000000     0.00000000
 Dipole moment /Debye                   0.00000000     0.00000000     0.00000000

 Results for state 2.7
 =====================

 !MCSCF STATE 2.7 Energy             -144.940483057039
 Nuclear energy                         0.00000000
 Kinetic energy                        89.30515177
 One electron energy                 -257.06252456
 Two electron energy                  112.12204151
 Virial ratio                           2.62298009

 !MCSCF STATE 2.7 Dipole moment         0.00000000     0.00000000     0.00000000
 Dipole moment /Debye                   0.00000000     0.00000000     0.00000000

 Results for state 3.7
 =====================

 !MCSCF STATE 3.7 Energy             -144.856078866685
 Nuclear energy                         0.00000000
 Kinetic energy                        89.30515177
 One electron energy                 -257.06252456
 Two electron energy                  112.20644570
 Virial ratio                           2.62203497

 !MCSCF STATE 3.7 Dipole moment         0.00000000     0.00000000     0.00000000
 Dipole moment /Debye                   0.00000000     0.00000000     0.00000000

 State-averaged charge density matrix saved on record  5202.2 (density set 1)

 !MCSCF expec        <1.1|EKIN|1.1>    89.305151773918
 !MCSCF expec        <1.4|EKIN|1.4>    89.305151773918
 !MCSCF expec        <2.4|EKIN|2.4>    89.305151773918
 !MCSCF expec        <3.4|EKIN|3.4>    89.305151773919
 !MCSCF expec        <1.6|EKIN|1.6>    89.305151773919
 !MCSCF expec        <2.6|EKIN|2.6>    89.305151773918
 !MCSCF expec        <3.6|EKIN|3.6>    89.305151773918
 !MCSCF expec        <1.7|EKIN|1.7>    89.305151773919
 !MCSCF expec        <2.7|EKIN|2.7>    89.305151773918
 !MCSCF expec        <3.7|EKIN|3.7>    89.305151773918

 !MCSCF expec         <1.1|POT|1.1>   -21.243243044170
 !MCSCF expec         <1.4|POT|1.4>   -21.243243044170
 !MCSCF expec         <2.4|POT|2.4>   -21.243243044170
 !MCSCF expec         <3.4|POT|3.4>   -21.243243044170
 !MCSCF expec         <1.6|POT|1.6>   -21.243243044170
 !MCSCF expec         <2.6|POT|2.6>   -21.243243044170
 !MCSCF expec         <3.6|POT|3.6>   -21.243243044170
 !MCSCF expec         <1.7|POT|1.7>   -21.243243044170
 !MCSCF expec         <2.7|POT|2.7>   -21.243243044170
 !MCSCF expec         <3.7|POT|3.7>   -21.243243044170


 NATURAL ORBITALS (state averaged)
 =================================

   Orb     Occ        Energy       Coefficients

                                   1 1s      1 1s      1 1s      1 1s      1 1s      1 1s      1 1s      1 1s      1 1s      1 1s   
                                   1 1s      1 1s      1 1s      1 1s      1 1s      1 1s      1 1s      1 1s      1 1s      1 1s   
                                   1 1s      1 1s      1 1s      1 1s      1 1s      1 3d0     1 3d2+    1 3d0     1 3d2+    1 3d0  
                                   1 3d2+    1 3d0     1 3d2+    1 3d0     1 3d2+    1 3d0     1 3d2+    1 3d0     1 3d2+    1 3d0  
                                   1 3d2+    1 3d0     1 3d2+    1 3d0     1 3d2+    1 3d0     1 3d2+    1 3d0     1 3d2+    1 3d0  
                                   1 3d2+    1 3d0     1 3d2+    1 5g0     1 5g4+    1 5g2+    1 5g0     1 5g4+    1 5g2+    1 5g0  
                                   1 5g4+    1 5g2+    1 5g0     1 5g4+    1 5g2+ 

   1.1  2.00000    -4.707361     0.000000  0.000000  0.000000  0.000001  0.000001  0.000009  0.000006  0.000080  0.000005  0.000562
                                -0.000471  0.003508 -0.012638  0.097206 -0.163601 -0.678750  0.259721  0.626898  0.294574  0.007879
                                -0.003122  0.001202  0.338060  0.091274 -0.000306  0.000000  0.000000  0.000000  0.000000  0.000000
                                 0.000000  0.000000  0.000000  0.000000  0.000000  0.000000  0.000000  0.000000  0.000000  0.000000
                                 0.000000  0.000000  0.000000  0.000000  0.000000  0.000000  0.000000  0.000000  0.000000  0.000000
                                 0.000000  0.000000  0.000000  0.000000  0.000000  0.000000  0.000000  0.000000  0.000000  0.000000
                                 0.000000  0.000000  0.000000  0.000000  0.000000

   2.1  2.00000    -0.272604    -0.000000 -0.000000 -0.000000 -0.000000 -0.000000 -0.000002 -0.000002 -0.000019 -0.000002 -0.000135
                                 0.000105 -0.000828  0.002954 -0.023603  0.043403  0.147463 -0.089022 -0.284261 -0.190669  0.355218
                                 0.574009  0.231379 -0.060897  0.047666 -0.000966  0.000000  0.000000  0.000000  0.000000  0.000000
                                 0.000000  0.000000  0.000000  0.000000  0.000000  0.000000  0.000000  0.000000  0.000000  0.000000
                                 0.000000  0.000000  0.000000  0.000000  0.000000  0.000000  0.000000  0.000000  0.000000  0.000000
                                 0.000000  0.000000  0.000000  0.000000  0.000000  0.000000  0.000000  0.000000  0.000000  0.000000
                                 0.000000  0.000000  0.000000  0.000000  0.000000

   3.1  1.40000    -0.367831     0.000000  0.000000  0.000000  0.000000  0.000000  0.000000  0.000000  0.000000  0.000000  0.000000
                                 0.000000  0.000000  0.000000  0.000000  0.000000  0.000000  0.000000  0.000000  0.000000  0.000000
                                 0.000000  0.000000  0.000000  0.000000  0.000000  0.000000  0.000210  0.000000  0.002148  0.000000
                                 0.017032  0.000000  0.063505  0.000000  0.142249  0.000000  0.235892  0.000000  0.313661  0.000000
                                 0.298350  0.000000  0.195107  0.000000  0.065227  0.000000  0.003689  0.000000  0.012398  0.000000
                                 0.014589  0.000000  0.000091  0.000000  0.000000  0.000000  0.000000  0.000000  0.000000  0.000000
                                 0.000000  0.000000  0.000000  0.000000  0.000000

   4.1  1.40000    -0.367831     0.000000  0.000000  0.000000  0.000000  0.000000  0.000000  0.000000  0.000000  0.000000  0.000000
                                 0.000000  0.000000  0.000000  0.000000  0.000000  0.000000  0.000000  0.000000  0.000000  0.000000
                                 0.000000  0.000000  0.000000  0.000000  0.000000 -0.000210  0.000000 -0.002148  0.000000 -0.017032
                                 0.000000 -0.063505  0.000000 -0.142249  0.000000 -0.235892  0.000000 -0.313661  0.000000 -0.298350
                                 0.000000 -0.195107  0.000000 -0.065227  0.000000 -0.003689  0.000000 -0.012398  0.000000 -0.014589
                                 0.000000 -0.000091  0.000000  0.000000  0.000000  0.000000  0.000000  0.000000  0.000000  0.000000
                                 0.000000  0.000000  0.000000  0.000000  0.000000

                                   1 2px     1 2px     1 2px     1 2px     1 2px     1 2px     1 2px     1 2px     1 2px     1 2px  
                                   1 2px     1 2px     1 2px     1 2px     1 2px     1 2px     1 2px     1 2px     1 2px     1 2px  
                                   1 2px     1 4f1+    1 4f3+    1 4f1+    1 4f3+    1 4f1+    1 4f3+    1 4f1+    1 4f3+    1 4f1+ 
                                   1 4f3+    1 6h1+    1 6h3+    1 6h5+    1 6h1+    1 6h3+    1 6h5+    1 6h1+    1 6h3+    1 6h5+ 


   1.2  2.00000    -3.031117     0.000000  0.000001  0.000001  0.000024  0.000009  0.000302 -0.000130  0.002505  0.006536 -0.073054
                                -0.099242  0.212575  0.453304  0.375340  0.158609  0.014815 -0.000886  0.000621  0.055088 -0.048164
                                -0.000174  0.000000  0.000000  0.000000  0.000000  0.000000  0.000000  0.000000  0.000000  0.000000
                                 0.000000  0.000000  0.000000  0.000000  0.000000  0.000000  0.000000  0.000000  0.000000  0.000000

                                   1 2py     1 2py     1 2py     1 2py     1 2py     1 2py     1 2py     1 2py     1 2py     1 2py  
                                   1 2py     1 2py     1 2py     1 2py     1 2py     1 2py     1 2py     1 2py     1 2py     1 2py  
                                   1 2py     1 4f1-    1 4f3-    1 4f1-    1 4f3-    1 4f1-    1 4f3-    1 4f1-    1 4f3-    1 4f1- 
                                   1 4f3-    1 6h1-    1 6h3-    1 6h5-    1 6h1-    1 6h3-    1 6h5-    1 6h1-    1 6h3-    1 6h5- 


   1.3  2.00000    -3.031117     0.000000  0.000001  0.000001  0.000024  0.000009  0.000302 -0.000130  0.002505  0.006536 -0.073054
                                -0.099242  0.212575  0.453304  0.375340  0.158609  0.014815 -0.000886  0.000621  0.055088 -0.048164
                                -0.000174  0.000000  0.000000  0.000000  0.000000  0.000000  0.000000  0.000000  0.000000  0.000000
                                 0.000000  0.000000  0.000000  0.000000  0.000000  0.000000  0.000000  0.000000  0.000000  0.000000

                                   1 3d2-    1 3d2-    1 3d2-    1 3d2-    1 3d2-    1 3d2-    1 3d2-    1 3d2-    1 3d2-    1 3d2- 
                                   1 3d2-    1 3d2-    1 3d2-    1 3d2-    1 5g2-    1 5g4-    1 5g2-    1 5g4-    1 5g2-    1 5g4- 
                                   1 5g2-    1 5g4- 

   1.4  1.40000    -0.367831     0.000210  0.002148  0.017032  0.063505  0.142249  0.235892  0.313661  0.298350  0.195107  0.065227
                                 0.003689  0.012398  0.014589  0.000091  0.000000  0.000000  0.000000  0.000000  0.000000  0.000000
                                 0.000000  0.000000

                                   1 2pz     1 2pz     1 2pz     1 2pz     1 2pz     1 2pz     1 2pz     1 2pz     1 2pz     1 2pz  
                                   1 2pz     1 2pz     1 2pz     1 2pz     1 2pz     1 2pz     1 2pz     1 2pz     1 2pz     1 2pz  
                                   1 2pz     1 4f0     1 4f2+    1 4f0     1 4f2+    1 4f0     1 4f2+    1 4f0     1 4f2+    1 4f0  
                                   1 4f2+    1 6h2+    1 6h4+    1 6h0     1 6h2+    1 6h4+    1 6h0     1 6h2+    1 6h4+    1 6h0  


   1.5  2.00000    -3.031117     0.000000  0.000001  0.000001  0.000024  0.000009  0.000302 -0.000130  0.002505  0.006536 -0.073054
                                -0.099242  0.212575  0.453304  0.375340  0.158609  0.014815 -0.000886  0.000621  0.055088 -0.048164
                                -0.000174  0.000000  0.000000  0.000000  0.000000  0.000000  0.000000  0.000000  0.000000  0.000000
                                 0.000000  0.000000  0.000000  0.000000  0.000000  0.000000  0.000000  0.000000  0.000000  0.000000

                                   1 3d1+    1 3d1+    1 3d1+    1 3d1+    1 3d1+    1 3d1+    1 3d1+    1 3d1+    1 3d1+    1 3d1+ 
                                   1 3d1+    1 3d1+    1 3d1+    1 3d1+    1 5g1+    1 5g3+    1 5g1+    1 5g3+    1 5g1+    1 5g3+ 
                                   1 5g1+    1 5g3+ 

   1.6  1.40000    -0.367831     0.000210  0.002148  0.017032  0.063505  0.142249  0.235892  0.313661  0.298350  0.195107  0.065227
                                 0.003689  0.012398  0.014589  0.000091  0.000000  0.000000  0.000000  0.000000  0.000000  0.000000
                                 0.000000  0.000000

                                   1 3d1-    1 3d1-    1 3d1-    1 3d1-    1 3d1-    1 3d1-    1 3d1-    1 3d1-    1 3d1-    1 3d1- 
                                   1 3d1-    1 3d1-    1 3d1-    1 3d1-    1 5g1-    1 5g3-    1 5g1-    1 5g3-    1 5g1-    1 5g3- 
                                   1 5g1-    1 5g3- 

   1.7  1.40000    -0.367831     0.000210  0.002148  0.017032  0.063505  0.142249  0.235892  0.313661  0.298350  0.195107  0.065227
                                 0.003689  0.012398  0.014589  0.000091  0.000000  0.000000  0.000000  0.000000  0.000000  0.000000
                                 0.000000  0.000000
 

 EXTRA SYMMETRY OF MOS IN SYMMETRY 1:   1 1 3 2 1 2 3 1 3 2   1 2 3 2 3 1 6 5 4 3   2 1 4 6 5 3 2 1 5 4   6 3 2 1 3 2 4 5 6 3
                                        2 1 3 2 1 1 3 2 1 3   2 1 1 2 3 1 1 1 1 1   1 1 1 1 1
 EXTRA SYMMETRY OF MOS IN SYMMETRY 2:   1 1 1 1 2 3 1 2 3 1   1 2 3 5 4 6 1 3 2 4   6 5 1 2 3 5 6 4 1 1   1 1 1 1 1 1 1 1 1 1
 EXTRA SYMMETRY OF MOS IN SYMMETRY 3:   1 1 1 1 2 3 1 3 2 1   1 3 2 5 6 4 1 3 2 6   5 4 1 2 3 5 6 4 1 1   1 1 1 1 1 1 1 1 1 1
 EXTRA SYMMETRY OF MOS IN SYMMETRY 5:   1 1 1 1 3 2 1 2 3 1   1 3 2 6 4 5 1 3 2 6   4 5 1 3 2 6 4 5 1 1   1 1 1 1 1 1 1 1 1 1
 EXTRA SYMMETRY OF MOS IN SYMMETRY 6:   1 1 1 1 1 2 3 1 2 3   1 2 3 1 1 3 2 1 1 1   1 1
 EXTRA SYMMETRY OF MOS IN SYMMETRY 7:   1 1 1 1 1 3 2 1 2 3   1 2 3 1 1 2 3 1 1 1   1 1
 EXTRA SYMMETRY OF MOS IN SYMMETRY 8:   1 1 1 3 2 1 3 2 1 2   3

 Natural orbital dump (state averaged) at molpro section  5202.2    (Orbital set 2)


 CI vector for state symmetry 1
 ==============================

 22 a a a          1.0000000

 TOTAL ENERGIES                      -144.94048306

 CI vector for state symmetry 2
 ==============================

 a2 2 a a          1.0000000   0.0000000   0.0000000
 aa a 2 2          0.0000000   0.8944272  -0.4472136
 2a 2 a a          0.0000000   0.4472136   0.8944272

 TOTAL ENERGIES                      -144.94048306  -144.94048306  -144.85607887

 CI vector for state symmetry 3
 ==============================

 aa 2 a 2          0.7974753  -0.4050100   0.4472136
 a2 a 2 a         -0.1189094   0.6211767   0.7745967
 2a a 2 a          0.5915181   0.6708996  -0.4472136

 TOTAL ENERGIES                      -144.94048306  -144.94048306  -144.85607887

 CI vector for state symmetry 4
 ==============================

 aa 2 2 a          0.7836009   0.4312419   0.4472136
 a2 a a 2         -0.0982376  -0.6247795   0.7745967
 2a a a 2         -0.6134484   0.6509079   0.4472136

 TOTAL ENERGIES                      -144.94048306  -144.94048306  -144.85607887



 **********************************************************************************************************************************
 DATASETS  * FILE   NREC   LENGTH (MB)   RECORD NAMES
              1      21      290.39       500      610      700      900      950      970     1000      129      960     1100   
                                          VAR    BASINP    GEOM    SYMINP    ZMAT    AOBASIS   BASIS     P2S    ABASIS      S 
                                         1400     1410     1420     1200     1210     1080     1600     1650     1300     1700   
                                         EKIN       V       ECP      H0       H01     AOSYM     SMH    MOLCAS    ERIS     OPER   
                                         1380   
                                         JKOP   

              2       5        5.97       700     1000      520     4202     5202   
                                         GEOM     BASIS   MCVARS     RHF     MCSCF   

 PROGRAMS   *        TOTAL     MULTI       POP       RHF       INT
 CPU TIMES  *        55.69      5.83      0.00      4.03     45.67
 REAL TIME  *        64.97 SEC
 DISK USED  *         1.05 GB      
 **********************************************************************************************************************************


 PROGRAM * RHF-SCF (OPEN SHELL)       Authors: W. Meyer, H.-J. Werner


 NUMBER OF ELECTRONS:      10+    7-    SPACE SYMMETRY=1    SPIN SYMMETRY: Quartet 
 CONVERGENCE THRESHOLDS:    1.00E-05 (Density)    1.00E-07 (Energy)
 MAX. NUMBER OF ITERATIONS:        0
 INTERPOLATION TYPE:            DIIS
 INTERPOLATION STEPS:              2 (START)      1 (STEP)
 LEVEL SHIFTS:                 -0.60 (CLOSED) -0.30 (OPEN) 


 Singly occupied orbitals:      1.4       1.6       1.7
 Molecular orbitals read from record     5202.2  Type=MCSCF/NATURAL (state averaged)

 Molecular orbital dump at record        2101.2

 ITERATION    DDIFF          GRAD             ENERGY        2-EL.EN.            DIPOLE MOMENTS         DIIS   ORB.
    1      0.000D+00      0.000D+00      -144.94048306    224.244083    0.00000    0.00000    0.00000    0    start

 Final alpha occupancy:   4   1   1   1   1   1   1   0
 Final beta  occupancy:   4   1   1   0   1   0   0   0

 !RHF STATE 1.1 Energy               -144.940483057039
 Nuclear energy                         0.00000000
 One-electron energy                 -257.06252456
 Two-electron energy                  112.12204151
 Virial quotient                       -1.62298009
 !RHF STATE 1.1 Dipole moment           0.00000000     0.00000000     0.00000000
 Dipole moment /Debye                   0.00000000     0.00000000     0.00000000
 

 !RHF expec          <1.1|EKIN|1.1>    89.305151773918
 
 !RHF expec           <1.1|POT|1.1>   -21.243243044170

 ELECTRON ORBITALS
 =================


   Orb  Occ    Energy  Couls-En    Coefficients

                                   1 1s      1 1s      1 1s      1 1s      1 1s      1 1s      1 1s      1 1s      1 1s      1 1s   
                                   1 1s      1 1s      1 1s      1 1s      1 1s      1 1s      1 1s      1 1s      1 1s      1 1s   
                                   1 1s      1 1s      1 1s      1 1s      1 1s      1 3d0     1 3d2+    1 3d0     1 3d2+    1 3d0  
                                   1 3d2+    1 3d0     1 3d2+    1 3d0     1 3d2+    1 3d0     1 3d2+    1 3d0     1 3d2+    1 3d0  
                                   1 3d2+    1 3d0     1 3d2+    1 3d0     1 3d2+    1 3d0     1 3d2+    1 3d0     1 3d2+    1 3d0  
                                   1 3d2+    1 3d0     1 3d2+    1 5g0     1 5g4+    1 5g2+    1 5g0     1 5g4+    1 5g2+    1 5g0  
                                   1 5g4+    1 5g2+    1 5g0     1 5g4+    1 5g2+ 

   1.1   2    -4.7074  -24.1101  0.000000  0.000000  0.000000  0.000001  0.000001  0.000009  0.000006  0.000080  0.000005  0.000562
                                -0.000471  0.003508 -0.012638  0.097206 -0.163601 -0.678750  0.259721  0.626898  0.294574  0.007879
                                -0.003122  0.001202  0.338060  0.091274 -0.000306  0.000000  0.000000  0.000000  0.000000  0.000000
                                 0.000000  0.000000  0.000000  0.000000  0.000000  0.000000  0.000000  0.000000  0.000000  0.000000
                                 0.000000  0.000000  0.000000  0.000000  0.000000  0.000000  0.000000  0.000000  0.000000  0.000000
                                 0.000000  0.000000  0.000000  0.000000  0.000000  0.000000  0.000000  0.000000  0.000000  0.000000
                                 0.000000  0.000000  0.000000  0.000000  0.000000

   2.1   2    -0.2726   -6.4938 -0.000000 -0.000000 -0.000000 -0.000000 -0.000000 -0.000002 -0.000002 -0.000019 -0.000002 -0.000135
                                 0.000105 -0.000828  0.002954 -0.023603  0.043403  0.147463 -0.089022 -0.284261 -0.190669  0.355218
                                 0.574009  0.231379 -0.060897  0.047666 -0.000966  0.000000  0.000000  0.000000  0.000000  0.000000
                                 0.000000  0.000000  0.000000  0.000000  0.000000  0.000000  0.000000  0.000000  0.000000  0.000000
                                 0.000000  0.000000  0.000000  0.000000  0.000000  0.000000  0.000000  0.000000  0.000000  0.000000
                                 0.000000  0.000000  0.000000  0.000000  0.000000  0.000000  0.000000  0.000000  0.000000  0.000000
                                 0.000000  0.000000  0.000000  0.000000  0.000000

   3.1   2    -0.3678  -14.7133  0.000000  0.000000  0.000000  0.000000  0.000000  0.000000  0.000000  0.000000  0.000000  0.000000
                                 0.000000  0.000000  0.000000  0.000000  0.000000  0.000000  0.000000  0.000000  0.000000  0.000000
                                 0.000000  0.000000  0.000000  0.000000  0.000000  0.000000  0.000210  0.000000  0.002148  0.000000
                                 0.017032  0.000000  0.063505  0.000000  0.142249  0.000000  0.235892  0.000000  0.313661  0.000000
                                 0.298350  0.000000  0.195107  0.000000  0.065227  0.000000  0.003689  0.000000  0.012398  0.000000
                                 0.014589  0.000000  0.000091  0.000000  0.000000  0.000000  0.000000  0.000000  0.000000  0.000000
                                 0.000000  0.000000  0.000000  0.000000  0.000000

   4.1   2    -0.3678  -14.7133  0.000000  0.000000  0.000000  0.000000  0.000000  0.000000  0.000000  0.000000  0.000000  0.000000
                                 0.000000  0.000000  0.000000  0.000000  0.000000  0.000000  0.000000  0.000000  0.000000  0.000000
                                 0.000000  0.000000  0.000000  0.000000  0.000000 -0.000210  0.000000 -0.002148  0.000000 -0.017032
                                 0.000000 -0.063505  0.000000 -0.142249  0.000000 -0.235892  0.000000 -0.313661  0.000000 -0.298350
                                 0.000000 -0.195107  0.000000 -0.065227  0.000000 -0.003689  0.000000 -0.012398  0.000000 -0.014589
                                 0.000000 -0.000091  0.000000  0.000000  0.000000  0.000000  0.000000  0.000000  0.000000  0.000000
                                 0.000000  0.000000  0.000000  0.000000  0.000000

                                   1 2px     1 2px     1 2px     1 2px     1 2px     1 2px     1 2px     1 2px     1 2px     1 2px  
                                   1 2px     1 2px     1 2px     1 2px     1 2px     1 2px     1 2px     1 2px     1 2px     1 2px  
                                   1 2px     1 4f1+    1 4f3+    1 4f1+    1 4f3+    1 4f1+    1 4f3+    1 4f1+    1 4f3+    1 4f1+ 
                                   1 4f3+    1 6h1+    1 6h3+    1 6h5+    1 6h1+    1 6h3+    1 6h5+    1 6h1+    1 6h3+    1 6h5+ 


   1.2   2    -3.0311  -20.5972  0.000000  0.000001  0.000001  0.000024  0.000009  0.000302 -0.000130  0.002505  0.006536 -0.073054
                                -0.099242  0.212575  0.453304  0.375340  0.158609  0.014815 -0.000886  0.000621  0.055088 -0.048164
                                -0.000174  0.000000  0.000000  0.000000  0.000000  0.000000  0.000000  0.000000  0.000000  0.000000
                                 0.000000  0.000000  0.000000  0.000000  0.000000  0.000000  0.000000  0.000000  0.000000  0.000000

                                   1 2py     1 2py     1 2py     1 2py     1 2py     1 2py     1 2py     1 2py     1 2py     1 2py  
                                   1 2py     1 2py     1 2py     1 2py     1 2py     1 2py     1 2py     1 2py     1 2py     1 2py  
                                   1 2py     1 4f1-    1 4f3-    1 4f1-    1 4f3-    1 4f1-    1 4f3-    1 4f1-    1 4f3-    1 4f1- 
                                   1 4f3-    1 6h1-    1 6h3-    1 6h5-    1 6h1-    1 6h3-    1 6h5-    1 6h1-    1 6h3-    1 6h5- 


   1.3   2    -3.0311  -20.5972  0.000000  0.000001  0.000001  0.000024  0.000009  0.000302 -0.000130  0.002505  0.006536 -0.073054
                                -0.099242  0.212575  0.453304  0.375340  0.158609  0.014815 -0.000886  0.000621  0.055088 -0.048164
                                -0.000174  0.000000  0.000000  0.000000  0.000000  0.000000  0.000000  0.000000  0.000000  0.000000
                                 0.000000  0.000000  0.000000  0.000000  0.000000  0.000000  0.000000  0.000000  0.000000  0.000000

                                   1 3d2-    1 3d2-    1 3d2-    1 3d2-    1 3d2-    1 3d2-    1 3d2-    1 3d2-    1 3d2-    1 3d2- 
                                   1 3d2-    1 3d2-    1 3d2-    1 3d2-    1 5g2-    1 5g4-    1 5g2-    1 5g4-    1 5g2-    1 5g4- 
                                   1 5g2-    1 5g4- 

   1.4   +    -0.3678  -14.7133  0.000210  0.002148  0.017032  0.063505  0.142249  0.235892  0.313661  0.298350  0.195107  0.065227
                                 0.003689  0.012398  0.014589  0.000091  0.000000  0.000000  0.000000  0.000000  0.000000  0.000000
                                 0.000000  0.000000

                                   1 2pz     1 2pz     1 2pz     1 2pz     1 2pz     1 2pz     1 2pz     1 2pz     1 2pz     1 2pz  
                                   1 2pz     1 2pz     1 2pz     1 2pz     1 2pz     1 2pz     1 2pz     1 2pz     1 2pz     1 2pz  
                                   1 2pz     1 4f0     1 4f2+    1 4f0     1 4f2+    1 4f0     1 4f2+    1 4f0     1 4f2+    1 4f0  
                                   1 4f2+    1 6h2+    1 6h4+    1 6h0     1 6h2+    1 6h4+    1 6h0     1 6h2+    1 6h4+    1 6h0  


   1.5   2    -3.0311  -20.5972  0.000000  0.000001  0.000001  0.000024  0.000009  0.000302 -0.000130  0.002505  0.006536 -0.073054
                                -0.099242  0.212575  0.453304  0.375340  0.158609  0.014815 -0.000886  0.000621  0.055088 -0.048164
                                -0.000174  0.000000  0.000000  0.000000  0.000000  0.000000  0.000000  0.000000  0.000000  0.000000
                                 0.000000  0.000000  0.000000  0.000000  0.000000  0.000000  0.000000  0.000000  0.000000  0.000000

                                   1 3d1+    1 3d1+    1 3d1+    1 3d1+    1 3d1+    1 3d1+    1 3d1+    1 3d1+    1 3d1+    1 3d1+ 
                                   1 3d1+    1 3d1+    1 3d1+    1 3d1+    1 5g1+    1 5g3+    1 5g1+    1 5g3+    1 5g1+    1 5g3+ 
                                   1 5g1+    1 5g3+ 

   1.6   +    -0.3678  -14.7133  0.000210  0.002148  0.017032  0.063505  0.142249  0.235892  0.313661  0.298350  0.195107  0.065227
                                 0.003689  0.012398  0.014589  0.000091  0.000000  0.000000  0.000000  0.000000  0.000000  0.000000
                                 0.000000  0.000000

                                   1 3d1-    1 3d1-    1 3d1-    1 3d1-    1 3d1-    1 3d1-    1 3d1-    1 3d1-    1 3d1-    1 3d1- 
                                   1 3d1-    1 3d1-    1 3d1-    1 3d1-    1 5g1-    1 5g3-    1 5g1-    1 5g3-    1 5g1-    1 5g3- 
                                   1 5g1-    1 5g3- 

   1.7   +    -0.3678  -14.7133  0.000210  0.002148  0.017032  0.063505  0.142249  0.235892  0.313661  0.298350  0.195107  0.065227
                                 0.003689  0.012398  0.014589  0.000091  0.000000  0.000000  0.000000  0.000000  0.000000  0.000000
                                 0.000000  0.000000

 HOMO      4.1    -0.367831 =     -10.0092eV
 LUMO      2.2     0.022269 =       0.6060eV
 LUMO-HOMO         0.390100 =      10.6152eV


 **********************************************************************************************************************************
 DATASETS  * FILE   NREC   LENGTH (MB)   RECORD NAMES
              1      21      290.39       500      610      700      900      950      970     1000      129      960     1100   
                                          VAR    BASINP    GEOM    SYMINP    ZMAT    AOBASIS   BASIS     P2S    ABASIS      S 
                                         1400     1410     1420     1200     1210     1080     1600     1650     1300     1700   
                                         EKIN       V       ECP      H0       H01     AOSYM     SMH    MOLCAS    ERIS     OPER   
                                         1380   
                                         JKOP   

              2       6        9.26       700     1000      520     4202     5202     2101   
                                         GEOM     BASIS   MCVARS     RHF     MCSCF     RHF  

 PROGRAMS   *        TOTAL       RHF     MULTI       POP       RHF       INT
 CPU TIMES  *        56.02      0.33      5.83      0.00      4.03     45.67
 REAL TIME  *        65.42 SEC
 DISK USED  *         1.05 GB      
 **********************************************************************************************************************************
 SETTING SCF(I)         =      -144.94048306  AU                              
 SETTING _CC_NORM_MAX   =         2.00000000                                  


 PROGRAM * CI (Multireference internally contracted CI)     Authors: H.-J. Werner, P.J. Knowles, 1987


 Convergence thresholds:  THRVAR = 1.00D-08  THRDEN = 1.00D-06

 Number of optimized states:  1  Roots:   1
 Number of reference states:  1  Roots:   1

 Reference symmetry:                   1   Quartet 
 Number of electrons:                 17
 Maximum number of shells:             3
 Maximum number of spin couplings:    14

 Reference space:        1 conf        1 CSFs
 N elec internal:       85 conf       85 CSFs
 N-1 el internal:      136 conf      346 CSFs
 N-2 el internal:       52 conf      409 CSFs

 Number of electrons in valence space:                     17
 Maximum number of open shell orbitals in reference space:  3
 Maximum number of open shell orbitals in internal spaces:  7


 Number of closed-shell orbitals:   7 (   4   1   1   0   1   0   0   0 )
 Number of active  orbitals:        3 (   0   0   0   1   0   1   1   0 )
 Number of external orbitals:     252 (  61  39  39  21  39  21  21  11 )

 Molecular orbitals read from record     2101.2  Type=RHF/CANONICAL (state 1.1)

 Valence orbitals related to previous ones by unitary transformation. Operators transformed.

 Number of p-space configurations:   1

 Reference wavefunction optimized for reference space (refopt=1)

 State     Reference Energy 
   1        -144.94048306

 Number of blocks in overlap matrix:    94   Smallest eigenvalue:  0.10D+01
 Number of N-2 electron functions:      94
 Number of N-1 electron functions:     346

 Number of internal configurations:                    4
 Number of singly external configurations:         10006
 Number of doubly external configurations:        386170
 Total number of contracted configurations:       396180
 Total number of uncontracted configurations:    1743126

 Diagonal Coupling coefficients finished.               Storage:   26464 words, CPU-Time:      0.00 seconds.
 Energy denominators for pairs finished in 1 passes.    Storage:  209635 words, CPU-time:      0.01 seconds.

  ITER. STATE  ROOT     SQ.NORM     CORR.ENERGY   TOTAL ENERGY   ENERGY CHANGE       DEN1      VAR(S)    VAR(P)      TIME
    1     1     1     1.00000000     0.00000000  -144.94048306     0.00000000    -0.82303019  0.22D-01  0.99D-01     0.06
    2     1     1     1.08336209    -0.68617288  -145.62665594    -0.68617288    -0.01728906  0.18D-02  0.22D-02     2.26
    3     1     1     1.07461906    -0.70237526  -145.64285832    -0.01620238    -0.00047894  0.43D-04  0.89D-04     4.67
    4     1     1     1.07430671    -0.70283984  -145.64332290    -0.00046458    -0.00003079  0.71D-05  0.38D-05     7.05
    5     1     1     1.07444600    -0.70287167  -145.64335473    -0.00003183    -0.00000137  0.17D-06  0.19D-06     9.42
    6     1     1     1.07451254    -0.70287312  -145.64335617    -0.00000144    -0.00000007  0.11D-07  0.86D-08    11.61
    7     1     1     1.07452001    -0.70287319  -145.64335625    -0.00000008    -0.00000000  0.37D-09  0.36D-09    13.91


 =====================================
 Analysis of CPU times by interactions
 =====================================

       I      S      P

 I   0.0%
 S   0.1%   7.6%
 P   0.1%   1.3%  11.1%

 Initialization:   0.4%
 Other:           79.4%

 Total CPU:       13.9 seconds
 =====================================



 Reference coefficients greater than 0.0500000
 =============================================
 222222/2//           0.9644178



 RESULTS FOR STATE 1.1
 =====================

 Coefficient of reference function:   C(0) = 0.96441782 (fixed)   0.96441782 (relaxed)

 Energy contributions of configuration classes

 CLASS          SQ.NORM        ECORR1        ECORR2
 +++++++++++++++++++++++++++++++++++++++++++++++++++
 Internals    0.00058743   -0.00407082   -0.00417030
 Singles      0.01509436   -0.11192852   -0.11397295
 Pairs        0.05946943   -0.58687385   -0.58472994
 Total        1.07515122   -0.70287319   -0.70287319
 +++++++++++++++++++++++++++++++++++++++++++++++++++


 Reference energy                    -144.94048306
 Nuclear energy                         0.00000000
 Kinetic energy                        89.76044020
 One electron energy                 -256.40867213
 Two electron energy                  110.76531588
 Virial quotient                       -1.62257845
 Correlation energy                    -0.70287319
 !CI(SD) STATE 1.1 Energy            -145.643356249798

 Properties without orbital relaxation:

 !CI(SD) STATE 1.1 Dipole moment        0.00000000     0.00000000     0.00000000
 Dipole moment /Debye                   0.00000000     0.00000000     0.00000000

 Cluster corrected energies          -145.69617803 (Davidson, fixed reference)
 Cluster corrected energies          -145.69617803 (Davidson, relaxed reference)

 Cluster corrected energies          -145.69116341 (Pople, fixed reference)
 Cluster corrected energies          -145.69116341 (Pople, relaxed reference)

 

 !CI(SD) expec       <1.1|EKIN|1.1>    89.760440197804
 
 !CI(SD) expec        <1.1|POT|1.1>   -21.234849739792


 **********************************************************************************************************************************
 DATASETS  * FILE   NREC   LENGTH (MB)   RECORD NAMES
              1      21      290.39       500      610      700      900      950      970     1000      129      960     1100   
                                          VAR    BASINP    GEOM    SYMINP    ZMAT    AOBASIS   BASIS     P2S    ABASIS      S 
                                         1400     1410     1420     1200     1210     1080     1600     1650     1300     1700   
                                         EKIN       V       ECP      H0       H01     AOSYM     SMH    MOLCAS    ERIS     OPER   
                                         1380   
                                         JKOP   

              2       6        9.26       700     1000      520     4202     5202     2101   
                                         GEOM     BASIS   MCVARS     RHF     MCSCF     RHF  

 PROGRAMS   *        TOTAL        CI       RHF     MULTI       POP       RHF       INT
 CPU TIMES  *        69.99     13.97      0.33      5.83      0.00      4.03     45.67
 REAL TIME  *        88.03 SEC
 DISK USED  *         1.05 GB      
 **********************************************************************************************************************************
 SETTING POSTHF(I)      =      -145.64335625  AU                              
                                                                                                                                                                                                                                                                

         SCF            POSTHF       EKIN           POT
    -144.9404831   -145.6433562   89.76044020   -21.23484974
                                                  

 CI/USERDEF energy=   -145.643356249798

        CI              RHF-SCF         MULTI           RHF-SCF 
   -145.64335625   -144.94048306   -144.85607887   -144.94442052
 **********************************************************************************************************************************
 Variable memory released
