
 Primary working directories    : /global/cscratch1/sd/aannabe
 Secondary working directories  : /global/cscratch1/sd/aannabe
 Wavefunction directory         : /global/homes/a/aannabe/wfu/
 Main file repository           : /global/cscratch1/sd/aannabe/

 SHA1      : 19cd028119e0e09f93f0674bd8af7968d9b3eff6
 NAME      : 2015.1.36
 ARCHNAME  : linux/x86_64
 FC        : /opt/cray/pe/craype/2.5.14/bin/ftn
 BLASLIB   : -L/opt/intel/compilers_and_libraries_2018.1.163/linux/mkl/lib/intel64 -Wl,-_start-group -lmkl_intel_ilp64 -lmkl_intel_thread -lmkl_core -Wl,-_end-group -liomp5
 id        : lbl

 Nodes     nprocs
 nid00226     1

 Using customized tuning parameters: mindgm=7; mindgv=16; mindgc=1; mindgr=1; noblas=0; minvec=7
 default implementation of scratch files=df  

 ***,Co
 memory,512,m
 gthresh,twoint=1.e-12
 
 gprint,basis,orbitals
 gexpec,ekin,pot
 
 angstrom
 geometry={
 1                                                                               ! Number of atoms
 Co 0.0 0.0 0.0
 }
 
 basis={
 Including file /global/homes/a/aannabe/docs/accurate/STU_natural/pps/Co.pp
 Including file /global/homes/a/aannabe/docs/accurate/STU_natural/basis/Co_qz.basis
 }
 
 {rhf
  start,atden
  print,orbitals=2
  wf,17,1,3
  occ,4,1,1,1,1,1,1,0
  open,1.4,1.6,1.7
  sym,1,1,1,3,2
  orbital,4202.2
 }
 pop
 {multi
  start,4202.2
  occ,4,1,1,1,1,1,1,0
  closed,2,1,1,0,1,0,0
  wf,17,1,3;state,1
  wf,17,4,3;state,3
  wf,17,6,3;state,3
  wf,17,7,3;state,3
  natorb,ci,print
  orbital,5202.2
 }
 {rhf,nitord=1,maxit=0
  start,5202.2
  wf,17,1,3
  occ,4,1,1,1,1,1,1,0
  open,1.4,1.6,1.7
 }
 
 scf(i)=energy
 
 _CC_NORM_MAX=2.0
 {ci
 maxit,100
 core
 }
 posthf(i)=energy
 
 table,scf,posthf,ekin,pot
 save,4.csv,new
 
 

 Variables initialized (889), CPU time= 0.00 sec
 Commands  initialized (702), CPU time= 0.01 sec, 572 directives.
 Default parameters read. Elapsed time= 0.13 sec

 Checking input...
 Passed
1


                                         ***  PROGRAM SYSTEM MOLPRO  ***
                                       Copyright, TTI GmbH Stuttgart, 2015
                                    Version 2015.1 linked Dec 29 2018 15:55:43


 **********************************************************************************************************************************
 LABEL *   Co                                                                            
  64 bit serial version                                                                  DATE: 16-Feb-19          TIME: 10:20:40  
 **********************************************************************************************************************************

 SHA1:             19cd028119e0e09f93f0674bd8af7968d9b3eff6
 **********************************************************************************************************************************

 THRESHOLDS:

 ZERO    =  1.00D-12  ONEINT  =  1.00D-12  TWOINT  =  1.00D-12  PREFAC  =  1.00D-14  LOCALI  =  1.00D-09  EORDER  =  1.00D-04
 ENERGY  =  0.00D+00  ETEST   =  0.00D+00  EDENS   =  0.00D+00  THRDEDEF=  1.00D-06  GRADIENT=  1.00D-02  STEP    =  1.00D-03
 ORBITAL =  1.00D-05  CIVEC   =  1.00D-05  COEFF   =  1.00D-04  PRINTCI =  5.00D-02  PUNCHCI =  9.90D+01  OPTGRAD =  3.00D-04
 OPTENERG=  1.00D-06  OPTSTEP =  3.00D-04  THRGRAD =  1.00D-10  COMPRESS=  1.00D-11  VARMIN  =  1.00D-07  VARMAX  =  1.00D-03
 THRDOUB =  0.00D+00  THRDIV  =  1.00D-05  THRRED  =  1.00D-07  THRPSP  =  1.00D+00  THRDC   =  1.00D-10  THRCS   =  1.00D-10
 THRNRM  =  1.00D-08  THREQ   =  0.00D+00  THRDE   =  1.00D+00  THRREF  =  1.00D-05  SPARFAC =  1.00D+00  THRDLP  =  1.00D-07
 THRDIA  =  1.00D-10  THRDLS  =  1.00D-07  THRGPS  =  0.00D+00  THRKEX  =  0.00D+00  THRDIS  =  2.00D-01  THRVAR  =  1.00D-10
 THRLOC  =  1.00D-06  THRGAP  =  1.00D-06  THRLOCT = -1.00D+00  THRGAPT = -1.00D+00  THRORB  =  1.00D-06  THRMLTP =  0.00D+00
 THRCPQCI=  1.00D-10  KEXTA   =  0.00D+00  THRCOARS=  0.00D+00  SYMTOL  =  1.00D-06  GRADTOL =  1.00D-06  THROVL  =  1.00D-08
 THRORTH =  1.00D-08  GRID    =  1.00D-06  GRIDMAX =  1.00D-03  DTMAX   =  0.00D+00  THROCCDE=  1.00D-01  THROCCDE=  1.00D-01



 ZUNIT=ANG
 

Geometry recognized as XYZ


 Variable memory set to  512000000 words,  buffer space   230000 words

 SETTING BASIS          =    USERDEF


 Recomputing integrals since basis changed


 Using spherical harmonics



 PROGRAM * SEWARD (Integral evaluation for generally contracted gaussian basis sets)     Author: Roland Lindh, 1990

 Geometry written to block  1 of record 700

 Orientation using atomic masses  
 Molecule type: Atom
 Symmetry elements: X,Y,Z
 Rotational constants:       0.0000000      0.0000000      0.0000000 GHz  (calculated with average atomic masses)

 Point group  D2h 



 ATOMIC COORDINATES

 NR  ATOM    CHARGE       X              Y              Z

   1  CO     17.00    0.000000000    0.000000000    0.000000000


          CO  CORE POTENTIAL

          f POTENTIAL

 POWERS             2
 EXPONENTIALS   1.000000    
 COEFFICIENTS   0.000000    

          s - f POTENTIAL

 POWERS             2              2
 EXPONENTIALS   23.66000       10.61000    
 COEFFICIENTS   283.9606       47.15685    

          p - f POTENTIAL

 POWERS             2              2
 EXPONENTIALS   25.04000       10.44000    
 COEFFICIENTS   182.2122       35.23335    

          d - f POTENTIAL

 POWERS             2              2
 EXPONENTIALS   29.54000       10.18000    
 COEFFICIENTS  -26.47533      -1.825787    


 BASIS DATA

   Nr Sym  Nuc  Type         Exponents   Contraction coefficients

    1.1 Ag    1  1s        9519.702255     0.000019   -0.000005
    2.1 Ag                 2379.925560     0.000082   -0.000020
                            679.978732     0.000254   -0.000062
                            226.659577     0.000887   -0.000226
                             90.663831    -0.000475    0.000172
                             46.961414    -0.005053    0.000884
                             24.110274     0.113134   -0.026643
                             14.430881    -0.136214    0.034032
                              8.757423    -0.314723    0.079486
                              4.484459    -0.095298    0.017726
                              2.519739     0.516122   -0.139082
                              1.236850     0.591231   -0.229248
                              0.601882     0.187720   -0.160604
                              0.223338     0.003819    0.127419
                              0.123422     0.001089    0.401588
                              0.059941    -0.000668    0.504345
                              0.027978     0.000182    0.142219
    3.1 Ag    1  1s          90.663831    -0.000047   -0.000231    0.002809    0.000000
    4.1 Ag                   46.961414     0.003654    0.007536   -0.024459    0.000000
    5.1 Ag                   24.110274    -0.046132   -0.097298    0.211717    0.000000
    6.1 Ag                   14.430881     0.036483    0.111611   -0.387452    0.000000
                              8.757423     0.217265    0.403621   -0.366909    0.000000
                              4.484459    -0.011883   -0.048324    0.139143    0.000000
                              2.519739    -0.324688   -1.157600    2.834527    0.000000
                              1.236850    -0.680581   -0.756839   -2.906398    0.000000
                              0.601882     0.256936    2.313683   -0.806896    0.000000
                              0.223338     1.224005    0.253074    4.336055    0.000000
                              0.123422     0.236837   -1.991466   -2.913607    0.000000
                              0.059941    -0.604064    0.166942   -1.253307    0.000000
                              0.027978    -0.574947    0.917221    1.509572    1.000000
    7.1 Ag    1  1s           2.586299     1.000000
    8.1 Ag    1  1s           3.168493     1.000000
    9.1 Ag    1  3d0        320.889008     0.000011
                            160.444504     0.001367
                             52.598830     0.008674
                             27.491581     0.030951
                             12.745988     0.094611
                              6.184310     0.186588
                              3.029146     0.280219
                              1.474099     0.302130
                              0.714391     0.251659
                              0.348520     0.144802
                              0.174166     0.053474
                              0.087891     0.009510
   10.1 Ag    1  3d2+       320.889008     0.000011
                            160.444504     0.001367
                             52.598830     0.008674
                             27.491581     0.030951
                             12.745988     0.094611
                              6.184310     0.186588
                              3.029146     0.280219
                              1.474099     0.302130
                              0.714391     0.251659
                              0.348520     0.144802
                              0.174166     0.053474
                              0.087891     0.009510
   11.1 Ag    1  3d0        160.444504    -0.000031
                             52.598830    -0.007869
                             27.491581    -0.041992
                             12.745988    -0.101388
                              6.184310    -0.216996
                              3.029146    -0.283962
                              1.474099    -0.127179
                              0.714391     0.177125
                              0.348520     0.375596
                              0.174166     0.284631
                              0.087891     0.200277
   12.1 Ag    1  3d2+       160.444504    -0.000031
                             52.598830    -0.007869
                             27.491581    -0.041992
                             12.745988    -0.101388
                              6.184310    -0.216996
                              3.029146    -0.283962
                              1.474099    -0.127179
                              0.714391     0.177125
                              0.348520     0.375596
                              0.174166     0.284631
                              0.087891     0.200277
   13.1 Ag    1  3d0        160.444504     0.000048
                             52.598830     0.010531
                             27.491581     0.055559
                             12.745988     0.140758
                              6.184310     0.305785
                              3.029146     0.242812
                              1.474099    -0.285044
                              0.714391    -0.594819
                              0.348520    -0.017937
                              0.174166     0.348150
                              0.087891     0.455170
   14.1 Ag    1  3d2+       160.444504     0.000048
                             52.598830     0.010531
                             27.491581     0.055559
                             12.745988     0.140758
                              6.184310     0.305785
                              3.029146     0.242812
                              1.474099    -0.285044
                              0.714391    -0.594819
                              0.348520    -0.017937
                              0.174166     0.348150
                              0.087891     0.455170
   15.1 Ag    1  3d0        160.444504    -0.000070
                             52.598830    -0.015269
                             27.491581    -0.078770
                             12.745988    -0.218556
                              6.184310    -0.479271
                              3.029146     0.173623
                              1.474099     0.954173
                              0.714391    -0.348490
                              0.348520    -0.737371
                              0.174166     0.071941
                              0.087891     0.644882
   16.1 Ag    1  3d2+       160.444504    -0.000070
                             52.598830    -0.015269
                             27.491581    -0.078770
                             12.745988    -0.218556
                              6.184310    -0.479271
                              3.029146     0.173623
                              1.474099     0.954173
                              0.714391    -0.348490
                              0.348520    -0.737371
                              0.174166     0.071941
                              0.087891     0.644882
   17.1 Ag    1  3d0        160.444504     0.000000
                             52.598830     0.000000
                             27.491581     0.000000
                             12.745988     0.000000
                              6.184310     0.000000
                              3.029146     0.000000
                              1.474099     0.000000
                              0.714391     0.000000
                              0.348520     0.000000
                              0.174166     0.000000
                              0.087891     1.000000
   18.1 Ag    1  3d2+       160.444504     0.000000
                             52.598830     0.000000
                             27.491581     0.000000
                             12.745988     0.000000
                              6.184310     0.000000
                              3.029146     0.000000
                              1.474099     0.000000
                              0.714391     0.000000
                              0.348520     0.000000
                              0.174166     0.000000
                              0.087891     1.000000
   19.1 Ag    1  3d0          4.048276     1.000000
   20.1 Ag    1  3d2+         4.048276     1.000000
   21.1 Ag    1  3d0          4.726625     1.000000
   22.1 Ag    1  3d2+         4.726625     1.000000
   23.1 Ag    1  5g0          1.312433     1.000000
   24.1 Ag    1  5g4+         1.312433     1.000000
   25.1 Ag    1  5g2+         1.312433     1.000000
   26.1 Ag    1  5g0          4.581075     1.000000
   27.1 Ag    1  5g4+         4.581075     1.000000
   28.1 Ag    1  5g2+         4.581075     1.000000
   29.1 Ag    1  5g0          6.901363     1.000000
   30.1 Ag    1  5g4+         6.901363     1.000000
   31.1 Ag    1  5g2+         6.901363     1.000000
    1.2 B3u   1  2px        347.595362     0.000175   -0.000048
    2.2 B3u                 139.038145     0.000252    0.000020
                             71.928971     0.000303   -0.000366
                             37.806311     0.008757   -0.000960
                             21.054252    -0.022826    0.002693
                             12.973193    -0.071614    0.019704
                              6.791461     0.011931   -0.011454
                              3.794018     0.279253   -0.055000
                              1.960649     0.421365   -0.121524
                              1.006283     0.315540   -0.057962
                              0.509539     0.103885   -0.040577
                              0.233091     0.010470    0.334199
                              0.083890     0.000549    0.497515
                              0.039802     0.000046    0.322124
    3.2 B3u   1  2px        139.038145    -0.000238   -0.000055    0.000052    0.000000
    4.2 B3u                  71.928971     0.001489   -0.000017    0.000144    0.000000
    5.2 B3u                  37.806311    -0.008723    0.004320   -0.005065    0.000000
    6.2 B3u                  21.054252     0.024538   -0.021339    0.051662    0.000000
                             12.973193     0.060856   -0.127134    0.209306    0.000000
                              6.791461    -0.020380    0.157208   -0.636052    0.000000
                              3.794018    -0.430195    0.794927   -1.334761    0.000000
                              1.960649    -0.407692    0.233574    2.337409    0.000000
                              1.006283     0.085326   -1.666033    0.190624    0.000000
                              0.509539     1.073326    0.282716   -2.657841    0.000000
                              0.233091     0.015067    1.335625    2.264444    0.000000
                              0.083890    -0.719631   -0.885469   -0.612584    0.000000
                              0.039802    -0.024603   -0.130340   -0.276620    1.000000
    7.2 B3u   1  2px          2.724786     1.000000
    8.2 B3u   1  2px          8.491665     1.000000
    9.2 B3u   1  4f1+         0.574342     1.000000
   10.2 B3u   1  4f3+         0.574342     1.000000
   11.2 B3u   1  4f1+         1.905783     1.000000
   12.2 B3u   1  4f3+         1.905783     1.000000
   13.2 B3u   1  4f1+         6.323772     1.000000
   14.2 B3u   1  4f3+         6.323772     1.000000
   15.2 B3u   1  4f1+         3.823826     1.000000
   16.2 B3u   1  4f3+         3.823826     1.000000
   17.2 B3u   1  6h1+         2.901601     1.000000
   18.2 B3u   1  6h3+         2.901601     1.000000
   19.2 B3u   1  6h5+         2.901601     1.000000
   20.2 B3u   1  6h1+         6.891833     1.000000
   21.2 B3u   1  6h3+         6.891833     1.000000
   22.2 B3u   1  6h5+         6.891833     1.000000
    1.3 B2u   1  2py        347.595362     0.000175   -0.000048
    2.3 B2u                 139.038145     0.000252    0.000020
                             71.928971     0.000303   -0.000366
                             37.806311     0.008757   -0.000960
                             21.054252    -0.022826    0.002693
                             12.973193    -0.071614    0.019704
                              6.791461     0.011931   -0.011454
                              3.794018     0.279253   -0.055000
                              1.960649     0.421365   -0.121524
                              1.006283     0.315540   -0.057962
                              0.509539     0.103885   -0.040577
                              0.233091     0.010470    0.334199
                              0.083890     0.000549    0.497515
                              0.039802     0.000046    0.322124
    3.3 B2u   1  2py        139.038145    -0.000238   -0.000055    0.000052    0.000000
    4.3 B2u                  71.928971     0.001489   -0.000017    0.000144    0.000000
    5.3 B2u                  37.806311    -0.008723    0.004320   -0.005065    0.000000
    6.3 B2u                  21.054252     0.024538   -0.021339    0.051662    0.000000
                             12.973193     0.060856   -0.127134    0.209306    0.000000
                              6.791461    -0.020380    0.157208   -0.636052    0.000000
                              3.794018    -0.430195    0.794927   -1.334761    0.000000
                              1.960649    -0.407692    0.233574    2.337409    0.000000
                              1.006283     0.085326   -1.666033    0.190624    0.000000
                              0.509539     1.073326    0.282716   -2.657841    0.000000
                              0.233091     0.015067    1.335625    2.264444    0.000000
                              0.083890    -0.719631   -0.885469   -0.612584    0.000000
                              0.039802    -0.024603   -0.130340   -0.276620    1.000000
    7.3 B2u   1  2py          2.724786     1.000000
    8.3 B2u   1  2py          8.491665     1.000000
    9.3 B2u   1  4f1-         0.574342     1.000000
   10.3 B2u   1  4f3-         0.574342     1.000000
   11.3 B2u   1  4f1-         1.905783     1.000000
   12.3 B2u   1  4f3-         1.905783     1.000000
   13.3 B2u   1  4f1-         6.323772     1.000000
   14.3 B2u   1  4f3-         6.323772     1.000000
   15.3 B2u   1  4f1-         3.823826     1.000000
   16.3 B2u   1  4f3-         3.823826     1.000000
   17.3 B2u   1  6h1-         2.901601     1.000000
   18.3 B2u   1  6h3-         2.901601     1.000000
   19.3 B2u   1  6h5-         2.901601     1.000000
   20.3 B2u   1  6h1-         6.891833     1.000000
   21.3 B2u   1  6h3-         6.891833     1.000000
   22.3 B2u   1  6h5-         6.891833     1.000000
    1.4 B1g   1  3d2-       320.889008     0.000011
                            160.444504     0.001367
                             52.598830     0.008674
                             27.491581     0.030951
                             12.745988     0.094611
                              6.184310     0.186588
                              3.029146     0.280219
                              1.474099     0.302130
                              0.714391     0.251659
                              0.348520     0.144802
                              0.174166     0.053474
                              0.087891     0.009510
    2.4 B1g   1  3d2-       160.444504    -0.000031    0.000048   -0.000070    0.000000
    3.4 B1g                  52.598830    -0.007869    0.010531   -0.015269    0.000000
    4.4 B1g                  27.491581    -0.041992    0.055559   -0.078770    0.000000
    5.4 B1g                  12.745988    -0.101388    0.140758   -0.218556    0.000000
                              6.184310    -0.216996    0.305785   -0.479271    0.000000
                              3.029146    -0.283962    0.242812    0.173623    0.000000
                              1.474099    -0.127179   -0.285044    0.954173    0.000000
                              0.714391     0.177125   -0.594819   -0.348490    0.000000
                              0.348520     0.375596   -0.017937   -0.737371    0.000000
                              0.174166     0.284631    0.348150    0.071941    0.000000
                              0.087891     0.200277    0.455170    0.644882    1.000000
    6.4 B1g   1  3d2-         4.048276     1.000000
    7.4 B1g   1  3d2-         4.726625     1.000000
    8.4 B1g   1  5g2-         1.312433     1.000000
    9.4 B1g   1  5g4-         1.312433     1.000000
   10.4 B1g   1  5g2-         4.581075     1.000000
   11.4 B1g   1  5g4-         4.581075     1.000000
   12.4 B1g   1  5g2-         6.901363     1.000000
   13.4 B1g   1  5g4-         6.901363     1.000000
    1.5 B1u   1  2pz        347.595362     0.000175   -0.000048
    2.5 B1u                 139.038145     0.000252    0.000020
                             71.928971     0.000303   -0.000366
                             37.806311     0.008757   -0.000960
                             21.054252    -0.022826    0.002693
                             12.973193    -0.071614    0.019704
                              6.791461     0.011931   -0.011454
                              3.794018     0.279253   -0.055000
                              1.960649     0.421365   -0.121524
                              1.006283     0.315540   -0.057962
                              0.509539     0.103885   -0.040577
                              0.233091     0.010470    0.334199
                              0.083890     0.000549    0.497515
                              0.039802     0.000046    0.322124
    3.5 B1u   1  2pz        139.038145    -0.000238   -0.000055    0.000052    0.000000
    4.5 B1u                  71.928971     0.001489   -0.000017    0.000144    0.000000
    5.5 B1u                  37.806311    -0.008723    0.004320   -0.005065    0.000000
    6.5 B1u                  21.054252     0.024538   -0.021339    0.051662    0.000000
                             12.973193     0.060856   -0.127134    0.209306    0.000000
                              6.791461    -0.020380    0.157208   -0.636052    0.000000
                              3.794018    -0.430195    0.794927   -1.334761    0.000000
                              1.960649    -0.407692    0.233574    2.337409    0.000000
                              1.006283     0.085326   -1.666033    0.190624    0.000000
                              0.509539     1.073326    0.282716   -2.657841    0.000000
                              0.233091     0.015067    1.335625    2.264444    0.000000
                              0.083890    -0.719631   -0.885469   -0.612584    0.000000
                              0.039802    -0.024603   -0.130340   -0.276620    1.000000
    7.5 B1u   1  2pz          2.724786     1.000000
    8.5 B1u   1  2pz          8.491665     1.000000
    9.5 B1u   1  4f0          0.574342     1.000000
   10.5 B1u   1  4f2+         0.574342     1.000000
   11.5 B1u   1  4f0          1.905783     1.000000
   12.5 B1u   1  4f2+         1.905783     1.000000
   13.5 B1u   1  4f0          6.323772     1.000000
   14.5 B1u   1  4f2+         6.323772     1.000000
   15.5 B1u   1  4f0          3.823826     1.000000
   16.5 B1u   1  4f2+         3.823826     1.000000
   17.5 B1u   1  6h2+         2.901601     1.000000
   18.5 B1u   1  6h4+         2.901601     1.000000
   19.5 B1u   1  6h0          2.901601     1.000000
   20.5 B1u   1  6h2+         6.891833     1.000000
   21.5 B1u   1  6h4+         6.891833     1.000000
   22.5 B1u   1  6h0          6.891833     1.000000
    1.6 B2g   1  3d1+       320.889008     0.000011
                            160.444504     0.001367
                             52.598830     0.008674
                             27.491581     0.030951
                             12.745988     0.094611
                              6.184310     0.186588
                              3.029146     0.280219
                              1.474099     0.302130
                              0.714391     0.251659
                              0.348520     0.144802
                              0.174166     0.053474
                              0.087891     0.009510
    2.6 B2g   1  3d1+       160.444504    -0.000031    0.000048   -0.000070    0.000000
    3.6 B2g                  52.598830    -0.007869    0.010531   -0.015269    0.000000
    4.6 B2g                  27.491581    -0.041992    0.055559   -0.078770    0.000000
    5.6 B2g                  12.745988    -0.101388    0.140758   -0.218556    0.000000
                              6.184310    -0.216996    0.305785   -0.479271    0.000000
                              3.029146    -0.283962    0.242812    0.173623    0.000000
                              1.474099    -0.127179   -0.285044    0.954173    0.000000
                              0.714391     0.177125   -0.594819   -0.348490    0.000000
                              0.348520     0.375596   -0.017937   -0.737371    0.000000
                              0.174166     0.284631    0.348150    0.071941    0.000000
                              0.087891     0.200277    0.455170    0.644882    1.000000
    6.6 B2g   1  3d1+         4.048276     1.000000
    7.6 B2g   1  3d1+         4.726625     1.000000
    8.6 B2g   1  5g1+         1.312433     1.000000
    9.6 B2g   1  5g3+         1.312433     1.000000
   10.6 B2g   1  5g1+         4.581075     1.000000
   11.6 B2g   1  5g3+         4.581075     1.000000
   12.6 B2g   1  5g1+         6.901363     1.000000
   13.6 B2g   1  5g3+         6.901363     1.000000
    1.7 B3g   1  3d1-       320.889008     0.000011
                            160.444504     0.001367
                             52.598830     0.008674
                             27.491581     0.030951
                             12.745988     0.094611
                              6.184310     0.186588
                              3.029146     0.280219
                              1.474099     0.302130
                              0.714391     0.251659
                              0.348520     0.144802
                              0.174166     0.053474
                              0.087891     0.009510
    2.7 B3g   1  3d1-       160.444504    -0.000031    0.000048   -0.000070    0.000000
    3.7 B3g                  52.598830    -0.007869    0.010531   -0.015269    0.000000
    4.7 B3g                  27.491581    -0.041992    0.055559   -0.078770    0.000000
    5.7 B3g                  12.745988    -0.101388    0.140758   -0.218556    0.000000
                              6.184310    -0.216996    0.305785   -0.479271    0.000000
                              3.029146    -0.283962    0.242812    0.173623    0.000000
                              1.474099    -0.127179   -0.285044    0.954173    0.000000
                              0.714391     0.177125   -0.594819   -0.348490    0.000000
                              0.348520     0.375596   -0.017937   -0.737371    0.000000
                              0.174166     0.284631    0.348150    0.071941    0.000000
                              0.087891     0.200277    0.455170    0.644882    1.000000
    6.7 B3g   1  3d1-         4.048276     1.000000
    7.7 B3g   1  3d1-         4.726625     1.000000
    8.7 B3g   1  5g1-         1.312433     1.000000
    9.7 B3g   1  5g3-         1.312433     1.000000
   10.7 B3g   1  5g1-         4.581075     1.000000
   11.7 B3g   1  5g3-         4.581075     1.000000
   12.7 B3g   1  5g1-         6.901363     1.000000
   13.7 B3g   1  5g3-         6.901363     1.000000
    1.8 Au    1  4f2-         0.574342     1.000000
    2.8 Au    1  4f2-         1.905783     1.000000
    3.8 Au    1  4f2-         6.323772     1.000000
    4.8 Au    1  4f2-         3.823826     1.000000
    5.8 Au    1  6h4-         2.901601     1.000000
    6.8 Au    1  6h2-         2.901601     1.000000
    7.8 Au    1  6h4-         6.891833     1.000000
    8.8 Au    1  6h2-         6.891833     1.000000

 NUCLEAR CHARGE:                   17
 NUMBER OF PRIMITIVE AOS:         396
 NUMBER OF SYMMETRY AOS:          321
 NUMBER OF CONTRACTIONS:          144   (  31Ag  +  22B3u +  22B2u +  13B1g +  22B1u +  13B2g +  13B3g +   8Au  )
 NUMBER OF CORE ORBITALS:           4   (   1Ag  +   1B3u +   1B2u +   0B1g +   1B1u +   0B2g +   0B3g +   0Au  )
 NUMBER OF VALENCE ORBITALS:        6   (   3Ag  +   0B3u +   0B2u +   1B1g +   0B1u +   1B2g +   1B3g +   0Au  )


 NUCLEAR REPULSION ENERGY    0.00000000

 EXTRA SYMMETRY OF AOS IN SYMMETRY 1:   1 1 1 1 1 1 1 1 2 3   2 3 2 3 2 3 2 3 2 3   2 3 4 5 6 4 5 6 4 5   6
 EXTRA SYMMETRY OF AOS IN SYMMETRY 2:   1 1 1 1 1 1 1 1 2 3   2 3 2 3 2 3 4 5 6 4   5 6
 EXTRA SYMMETRY OF AOS IN SYMMETRY 3:   1 1 1 1 1 1 1 1 2 3   2 3 2 3 2 3 4 5 6 4   5 6
 EXTRA SYMMETRY OF AOS IN SYMMETRY 4:   1 1 1 1 1 1 1 2 3 2   3 2 3
 EXTRA SYMMETRY OF AOS IN SYMMETRY 5:   1 1 1 1 1 1 1 1 2 3   2 3 2 3 2 3 4 5 6 4   5 6
 EXTRA SYMMETRY OF AOS IN SYMMETRY 6:   1 1 1 1 1 1 1 2 3 2   3 2 3
 EXTRA SYMMETRY OF AOS IN SYMMETRY 7:   1 1 1 1 1 1 1 2 3 2   3 2 3
 EXTRA SYMMETRY OF AOS IN SYMMETRY 8:   1 1 1 1 2 3 2 3

 Eigenvalues of metric

         1 0.164E-03 0.143E-02 0.143E-02 0.214E-02 0.203E-01 0.203E-01 0.477E-01 0.477E-01
         2 0.120E-02 0.398E-01 0.398E-01 0.458E-01 0.153E+00 0.379E+00 0.379E+00 0.446E+00
         3 0.120E-02 0.398E-01 0.398E-01 0.458E-01 0.153E+00 0.379E+00 0.379E+00 0.446E+00
         4 0.143E-02 0.203E-01 0.477E-01 0.881E-01 0.881E-01 0.876E+00 0.876E+00 0.978E+00
         5 0.120E-02 0.398E-01 0.398E-01 0.458E-01 0.153E+00 0.379E+00 0.379E+00 0.446E+00
         6 0.143E-02 0.203E-01 0.477E-01 0.881E-01 0.881E-01 0.876E+00 0.876E+00 0.978E+00
         7 0.143E-02 0.203E-01 0.477E-01 0.881E-01 0.881E-01 0.876E+00 0.876E+00 0.978E+00
         8 0.398E-01 0.379E+00 0.446E+00 0.446E+00 0.106E+01 0.155E+01 0.155E+01 0.252E+01


 Contracted 2-electron integrals neglected if value below      1.0D-12
 AO integral compression algorithm  1   Integral accuracy      1.0D-12

     53.477 MB (compressed) written to integral file ( 57.5%)


 NUMBER OF SORTED TWO-ELECTRON INTEGRALS:    7063297.     BUFFER LENGTH:  32768
 NUMBER OF SEGMENTS:   1  SEGMENT LENGTH:    7063297      RECORD LENGTH: 524288

 Memory used in sort:       7.62 MW

 SORT1 READ    11599838. AND WROTE     4948094. INTEGRALS IN     15 RECORDS. CPU TIME:     0.28 SEC, REAL TIME:     0.35 SEC
 SORT2 READ     4948094. AND WROTE     7063297. INTEGRALS IN    204 RECORDS. CPU TIME:     0.24 SEC, REAL TIME:     0.41 SEC

 FILE SIZES:   FILE 1:    73.9 MBYTE,  FILE 4:    62.9 MBYTE,   TOTAL:    136.9 MBYTE

 OPERATOR DM      FOR CENTER  0  COORDINATES:    0.000000    0.000000    0.000000
 OPERATOR EKIN    FOR CENTER  0  COORDINATES:    0.000000    0.000000    0.000000
 OPERATOR POT     FOR CENTER  0  COORDINATES:    0.000000    0.000000    0.000000


 **********************************************************************************************************************************
 DATASETS  * FILE   NREC   LENGTH (MB)   RECORD NAMES
              1      20       52.20       500      610      700      900      950      970     1000      129      960     1100   
                                          VAR    BASINP    GEOM    SYMINP    ZMAT    AOBASIS   BASIS     P2S    ABASIS      S 
                                         1400     1410     1420     1200     1210     1080     1600     1650     1300     1700   
                                         EKIN       V       ECP      H0       H01     AOSYM     SMH    MOLCAS    ERIS     OPER   

 PROGRAMS   *        TOTAL       INT
 CPU TIMES  *        24.77     24.67
 REAL TIME  *        27.20 SEC
 DISK USED  *       137.19 MB      
 **********************************************************************************************************************************


 PROGRAM * RHF-SCF (OPEN SHELL)       Authors: W. Meyer, H.-J. Werner


 NUMBER OF ELECTRONS:      10+    7-    SPACE SYMMETRY=1    SPIN SYMMETRY: Quartet 
 CONVERGENCE THRESHOLDS:    1.00E-05 (Density)    1.00E-07 (Energy)
 MAX. NUMBER OF ITERATIONS:       60
 INTERPOLATION TYPE:            DIIS
 INTERPOLATION STEPS:              2 (START)      1 (STEP)
 LEVEL SHIFTS:                 -0.60 (CLOSED) -0.30 (OPEN) 


 Singly occupied orbitals:      1.4       1.6       1.7
 
 Extra symmetries of mos in symmetry 1:   1   1   3   2

   Atom=CO basis=ECP10MDF_GUESS    lmin=0  lmax=2

 Orbital guess generated from atomic densities. Full valence occupancy:    4   1   1   1   1   1   1   0


 Molecular orbital dump at record        4202.2

 ITERATION    DDIFF          GRAD             ENERGY        2-EL.EN.            DIPOLE MOMENTS         DIIS   ORB.
    1      0.000D+00      0.000D+00      -144.89272342    219.375708    0.00000    0.00000    0.00000    0    start
    2      0.000D+00      0.205D-01      -144.93268012    226.166131    0.00000    0.00000    0.00000    1    diag,B
    3      0.577D-02      0.146D-01      -144.94321619    224.445618    0.00000    0.00000    0.00000    2    diag,B
    4      0.148D-02      0.273D-02      -144.94413872    224.358644    0.00000    0.00000    0.00000    3    diag,B
    5      0.762D-03      0.500D-03      -144.94423768    224.347448    0.00000    0.00000    0.00000    4    diag,B
    6      0.318D-03      0.160D-03      -144.94425672    224.316012    0.00000    0.00000    0.00000    5    diag,B
    7      0.281D-03      0.628D-04      -144.94426124    224.298620    0.00000    0.00000    0.00000    6    fixocc
    8      0.127D-03      0.248D-04      -144.94426209    224.291332    0.00000    0.00000    0.00000    7    diag,B
    9      0.316D-03      0.917D-05      -144.94426221    224.289086    0.00000    0.00000    0.00000    8    diag,B
   10      0.249D-03      0.264D-05      -144.94426222    224.288785    0.00000    0.00000    0.00000    9    orth
   11      0.755D-04      0.620D-06      -144.94426222    224.288718    0.00000    0.00000    0.00000    9    diag,B
   12      0.104D-04      0.104D-06      -144.94426222    224.288711    0.00000    0.00000    0.00000    9    diag,B
   13      0.207D-06      0.256D-07      -144.94426222    224.288709    0.00000    0.00000    0.00000    0    orth

 Final alpha occupancy:   4   1   1   1   1   1   1   0
 Final beta  occupancy:   4   1   1   0   1   0   0   0

 !RHF STATE 1.1 Energy               -144.944262221378
 Nuclear energy                         0.00000000
 One-electron energy                 -257.08861657
 Two-electron energy                  112.14435435
 Virial quotient                       -1.62198368
 !RHF STATE 1.1 Dipole moment           0.00000000     0.00000000     0.00000000
 Dipole moment /Debye                   0.00000000     0.00000000     0.00000000
 

 !RHF expec          <1.1|EKIN|1.1>    89.362343390201
 
 !RHF expec           <1.1|POT|1.1>   -21.247602950482

 ELECTRON ORBITALS
 =================


   Orb  Occ    Energy  Couls-En    Coefficients

                                   1 1s      1 1s      1 1s      1 1s      1 1s      1 1s      1 1s      1 1s      1 3d0     1 3d2+ 
                                   1 3d0     1 3d2+    1 3d0     1 3d2+    1 3d0     1 3d2+    1 3d0     1 3d2+    1 3d0     1 3d2+ 
                                   1 3d0     1 3d2+    1 5g0     1 5g4+    1 5g2+    1 5g0     1 5g4+    1 5g2+    1 5g0     1 5g4+ 
                                   1 5g2+ 

   1.1   2    -4.7049  -24.1069  1.000125 -0.000275  0.000247 -0.000007 -0.000100  0.000391 -0.001057  0.000904  0.000000 -0.000000
                                 0.000000 -0.000000  0.000000 -0.000000  0.000000 -0.000000 -0.000000  0.000000 -0.000000  0.000000
                                 0.000000 -0.000000  0.000911  0.000770  0.000000  0.000169  0.000143 -0.000000  0.000189  0.000160
                                 0.000000

   2.1   2    -0.2724   -6.4911 -0.000156  1.000143 -0.000661  0.000046  0.000045 -0.000146  0.000567 -0.000487 -0.000000  0.000000
                                 0.000000 -0.000000  0.000000 -0.000000  0.000000 -0.000000 -0.000000  0.000000 -0.000000  0.000000
                                 0.000000 -0.000000  0.000001  0.000001  0.000000  0.000182  0.000154 -0.000000 -0.000076 -0.000065
                                 0.000000

   3.1   2    -0.6249  -14.8961  0.000000  0.000000 -0.000000  0.000000  0.000000 -0.000000  0.000000 -0.000000  0.001942  1.001069
                                 0.000024  0.012621  0.000006  0.002864 -0.000001 -0.000609 -0.000002 -0.001251  0.000001  0.000472
                                -0.000001 -0.000591  0.000001 -0.000001 -0.000698  0.000000 -0.000000 -0.000130  0.000000 -0.000000
                                -0.000098

   4.1   2    -0.6249  -14.8961  0.000000  0.000000 -0.000000  0.000000  0.000000 -0.000000  0.000000 -0.000000  1.001069 -0.001942
                                 0.012621 -0.000024  0.002864 -0.000006 -0.000609  0.000001 -0.001251  0.000002  0.000472 -0.000001
                                -0.000591  0.000001  0.000451 -0.000533  0.000001  0.000084 -0.000099  0.000000  0.000063 -0.000075
                                 0.000000

   5.1   0     0.0748   -2.6668 -0.567850 -3.955541  1.250974 -0.579329 -0.148359  4.616148 -0.770327  0.528778  0.000000  0.000000
                                -0.000000  0.000000 -0.000000  0.000000 -0.000000  0.000000  0.000000 -0.000000 -0.000000 -0.000000
                                 0.000000  0.000000  0.000406  0.000343 -0.000000 -0.000177 -0.000149  0.000000  0.000020  0.000017
                                -0.000000

   6.1   0     0.2482   -3.4627 -0.000000  0.000000 -0.000000  0.000000  0.000000 -0.000000  0.000000 -0.000000  0.000805 -0.415438
                                 0.000857 -0.442136  0.000727 -0.375176  0.000302 -0.156025 -0.003110  1.604720 -0.000462  0.238498
                                 0.000338 -0.174310 -0.000000  0.000000 -0.000146 -0.000000  0.000000 -0.000205  0.000000 -0.000000
                                 0.000008

                                   1 2px     1 2px     1 2px     1 2px     1 2px     1 2px     1 2px     1 2px     1 4f1+    1 4f3+ 
                                   1 4f1+    1 4f3+    1 4f1+    1 4f3+    1 4f1+    1 4f3+    1 6h1+    1 6h3+    1 6h5+    1 6h1+ 
                                   1 6h3+    1 6h5+ 

   1.2   2    -3.0292  -20.5938  1.000060  0.000145  0.000147 -0.000035  0.000006 -0.000042 -0.000100  0.000017 -0.001907  0.002462
                                -0.002781  0.003590 -0.001187  0.001532  0.000009 -0.000012 -0.000158  0.000017 -0.000160 -0.000089
                                 0.000013 -0.000092

   2.2   0     0.0423   -3.6984  0.001942  0.033851  0.062001  0.071197  0.031935  1.028408 -0.095208  0.017125  0.000394 -0.000509
                                -0.000132  0.000170 -0.000053  0.000069 -0.000046  0.000060 -0.000009  0.000001 -0.000009  0.000054
                                -0.000008  0.000056

   3.2   0     0.2042   -3.9811 -0.181770  2.523221 -0.373365 -0.355519 -0.151142 -2.570903  0.432522 -0.080352  0.000729 -0.000941
                                -0.000179  0.000232 -0.000073  0.000094 -0.000095  0.000123 -0.000022  0.000002 -0.000022  0.000088
                                -0.000013  0.000090

                                   1 2py     1 2py     1 2py     1 2py     1 2py     1 2py     1 2py     1 2py     1 4f1-    1 4f3- 
                                   1 4f1-    1 4f3-    1 4f1-    1 4f3-    1 4f1-    1 4f3-    1 6h1-    1 6h3-    1 6h5-    1 6h1- 
                                   1 6h3-    1 6h5- 

   1.3   2    -3.0292  -20.5938  1.000060  0.000145  0.000147 -0.000035  0.000006 -0.000042 -0.000100  0.000017 -0.001907 -0.002462
                                -0.002781 -0.003590 -0.001187 -0.001532  0.000009  0.000012 -0.000158 -0.000017 -0.000160 -0.000089
                                -0.000013 -0.000092

   2.3   0     0.0423   -3.6984  0.001942  0.033851  0.062001  0.071197  0.031935  1.028408 -0.095208  0.017125  0.000394  0.000509
                                -0.000132 -0.000170 -0.000053 -0.000069 -0.000046 -0.000060 -0.000009 -0.000001 -0.000009  0.000054
                                 0.000008  0.000056

   3.3   0     0.2042   -3.9811 -0.181770  2.523221 -0.373365 -0.355519 -0.151142 -2.570903  0.432522 -0.080352  0.000729  0.000941
                                -0.000179 -0.000232 -0.000073 -0.000094 -0.000095 -0.000123 -0.000022 -0.000002 -0.000022  0.000088
                                 0.000013  0.000090

                                   1 3d2-    1 3d2-    1 3d2-    1 3d2-    1 3d2-    1 3d2-    1 3d2-    1 5g2-    1 5g4-    1 5g2- 
                                   1 5g4-    1 5g2-    1 5g4- 

   1.4   +    -0.7235  -15.1819  0.997453 -0.020006 -0.004810  0.001115  0.002718 -0.000832  0.001553  0.001033  0.000000  0.000586
                                -0.000000  0.000032 -0.000000

   2.4   0     0.2465   -3.4400 -0.393390 -0.430851 -0.369084 -0.154320  1.593471  0.236281 -0.172807 -0.000065 -0.000000 -0.000099
                                 0.000000  0.000005 -0.000000

   3.4   0     0.8288   -4.7671  0.962604  2.375446  1.753524  0.636792 -2.798572 -0.831592  0.591226 -0.000015  0.000000 -0.000273
                                 0.000000  0.000014 -0.000000

                                   1 2pz     1 2pz     1 2pz     1 2pz     1 2pz     1 2pz     1 2pz     1 2pz     1 4f0     1 4f2+ 
                                   1 4f0     1 4f2+    1 4f0     1 4f2+    1 4f0     1 4f2+    1 6h2+    1 6h4+    1 6h0     1 6h2+ 
                                   1 6h4+    1 6h0  

   1.5   2    -3.0292  -20.5938  1.000060  0.000145  0.000147 -0.000035  0.000006 -0.000042 -0.000100  0.000017  0.003115  0.000000
                                 0.004541 -0.000000  0.001938 -0.000000 -0.000015  0.000000  0.000000 -0.000108 -0.000198  0.000000
                                -0.000059 -0.000114

   2.5   0     0.0423   -3.6984  0.001942  0.033851  0.062001  0.071197  0.031935  1.028408 -0.095208  0.017125 -0.000644 -0.000000
                                 0.000215  0.000000  0.000087  0.000000  0.000076  0.000000 -0.000000 -0.000006 -0.000011  0.000000
                                 0.000036  0.000069

   3.5   0     0.2042   -3.9811 -0.181770  2.523221 -0.373365 -0.355519 -0.151142 -2.570903  0.432522 -0.080352 -0.001190  0.000000
                                 0.000293  0.000000  0.000119  0.000000  0.000155 -0.000000  0.000000 -0.000015 -0.000027 -0.000000
                                 0.000058  0.000113

                                   1 3d1+    1 3d1+    1 3d1+    1 3d1+    1 3d1+    1 3d1+    1 3d1+    1 5g1+    1 5g3+    1 5g1+ 
                                   1 5g3+    1 5g1+    1 5g3+ 

   1.6   +    -0.7235  -15.1819  0.997453 -0.020006 -0.004810  0.001115  0.002718 -0.000832  0.001553 -0.000365 -0.000966 -0.000207
                                -0.000548 -0.000011 -0.000030

   2.6   0     0.2465   -3.4400 -0.393390 -0.430851 -0.369084 -0.154320  1.593471  0.236281 -0.172807  0.000023  0.000061  0.000035
                                 0.000093 -0.000002 -0.000005

   3.6   0     0.8288   -4.7671  0.962604  2.375446  1.753524  0.636792 -2.798572 -0.831592  0.591226  0.000005  0.000014  0.000096
                                 0.000255 -0.000005 -0.000013

                                   1 3d1-    1 3d1-    1 3d1-    1 3d1-    1 3d1-    1 3d1-    1 3d1-    1 5g1-    1 5g3-    1 5g1- 
                                   1 5g3-    1 5g1-    1 5g3- 

   1.7   +    -0.7235  -15.1819  0.997453 -0.020006 -0.004810  0.001115  0.002718 -0.000832  0.001553 -0.000365  0.000966 -0.000207
                                 0.000548 -0.000011  0.000030

   2.7   0     0.2465   -3.4400 -0.393390 -0.430851 -0.369084 -0.154320  1.593471  0.236281 -0.172807  0.000023 -0.000061  0.000035
                                -0.000093 -0.000002  0.000005

   3.7   0     0.8288   -4.7671  0.962604  2.375446  1.753524  0.636792 -2.798572 -0.831592  0.591226  0.000005 -0.000014  0.000096
                                -0.000255 -0.000005  0.000013

                                   1 4f2-    1 4f2-    1 4f2-    1 4f2-    1 6h4-    1 6h2-    1 6h4-    1 6h2- 

   1.8   0     1.8677   -4.8795  1.026809 -0.095900 -0.030062  0.110961  0.000000  0.000000 -0.000000 -0.000000

   2.8   0     5.7523   -1.3991 -0.570315  1.406626  0.273149 -0.500395  0.000000 -0.000000 -0.000000  0.000000

 HOMO      4.1    -0.624879 =     -17.0038eV
 LUMO      2.2     0.042272 =       1.1503eV
 LUMO-HOMO         0.667151 =      18.1541eV


 **********************************************************************************************************************************
 DATASETS  * FILE   NREC   LENGTH (MB)   RECORD NAMES
              1      20       52.20       500      610      700      900      950      970     1000      129      960     1100   
                                          VAR    BASINP    GEOM    SYMINP    ZMAT    AOBASIS   BASIS     P2S    ABASIS      S 
                                         1400     1410     1420     1200     1210     1080     1600     1650     1300     1700   
                                         EKIN       V       ECP      H0       H01     AOSYM     SMH    MOLCAS    ERIS     OPER   

              2       4        2.87       700     1000      520     4202   
                                         GEOM     BASIS   MCVARS     RHF  

 PROGRAMS   *        TOTAL       RHF       INT
 CPU TIMES  *        25.09      0.32     24.67
 REAL TIME  *        27.72 SEC
 DISK USED  *       137.19 MB      
 **********************************************************************************************************************************


 PROGRAM * POP (Mulliken population analysis)

 
 Density matrix read from record         4202.2  Type=RHF/CHARGE (state 1.1)
 
 Population analysis by basis function type

 Unique atom        s        p        d        f        g    Total    Charge
   1  CO      4.00000  5.99966  6.99999  0.00034  0.00001 17.00000  - 0.00000


 **********************************************************************************************************************************
 DATASETS  * FILE   NREC   LENGTH (MB)   RECORD NAMES
              1      20       52.20       500      610      700      900      950      970     1000      129      960     1100   
                                          VAR    BASINP    GEOM    SYMINP    ZMAT    AOBASIS   BASIS     P2S    ABASIS      S 
                                         1400     1410     1420     1200     1210     1080     1600     1650     1300     1700   
                                         EKIN       V       ECP      H0       H01     AOSYM     SMH    MOLCAS    ERIS     OPER   

              2       4        2.87       700     1000      520     4202   
                                         GEOM     BASIS   MCVARS     RHF  

 PROGRAMS   *        TOTAL       POP       RHF       INT
 CPU TIMES  *        25.10      0.00      0.32     24.67
 REAL TIME  *        27.73 SEC
 DISK USED  *       137.19 MB      
 **********************************************************************************************************************************


 PROGRAM * MULTI (Direct Multiconfiguration SCF)       Authors: P.J. Knowles, H.-J. Werner (1984)     S.T. Elbert (1988)


 Number of closed-shell orbitals:   5 (   2   1   1   0   1   0   0   0 )
 Number of active  orbitals:        5 (   2   0   0   1   0   1   1   0 )
 Number of external orbitals:     134 (  27  21  21  12  21  12  12   8 )

 State symmetry 1

 Number of electrons:     7    Spin symmetry=Quartet   Space symmetry=1
 Number of states:        1
 Number of CSFs:          1   (1 determinants, 10 intermediate states)

 State symmetry 2

 Number of electrons:     7    Spin symmetry=Quartet   Space symmetry=4
 Number of states:        3
 Number of CSFs:          3   (3 determinants, 10 intermediate states)

 State symmetry 3

 Number of electrons:     7    Spin symmetry=Quartet   Space symmetry=6
 Number of states:        3
 Number of CSFs:          3   (3 determinants, 10 intermediate states)

 State symmetry 4

 Number of electrons:     7    Spin symmetry=Quartet   Space symmetry=7
 Number of states:        3
 Number of CSFs:          3   (3 determinants, 10 intermediate states)

 Molecular orbitals read from record     4202.2  Type=RHF/CANONICAL (state 1.1)
 *** IN SYMMETRY 1 ORBITAL  1 SYMMETRY CONTAMINATION OF 0.233D-02 HAS BEEN REMOVED
 *** IN SYMMETRY 1 ORBITAL  2 SYMMETRY CONTAMINATION OF 0.477D-03 HAS BEEN REMOVED
 *** IN SYMMETRY 1 ORBITAL  3 SYMMETRY CONTAMINATION OF 0.284D-02 HAS BEEN REMOVED
 *** IN SYMMETRY 1 ORBITAL  4 SYMMETRY CONTAMINATION OF 0.321D-02 HAS BEEN REMOVED

 EXTRA SYMMETRY OF MOS IN SYMMETRY 1:   1 1 3 2 1 3 2 1 3 2   1 2 3 1 5 6 4 2 3 1   2 3 6 5 4 3 2 6 5 4   1
 *** IN SYMMETRY 2 ORBITAL  1 SYMMETRY CONTAMINATION OF 0.138D-01 HAS BEEN REMOVED
 EXTRA SYMMETRY OF MOS IN SYMMETRY 2:   1 1 1 1 2 3 1 2 3 1   2 3 5 6 4 1 2 3 5 6   4 1
 *** IN SYMMETRY 3 ORBITAL  1 SYMMETRY CONTAMINATION OF 0.138D-01 HAS BEEN REMOVED
 EXTRA SYMMETRY OF MOS IN SYMMETRY 3:   1 1 1 1 2 3 1 2 3 1   2 3 5 6 4 1 2 3 5 6   4 1
 *** IN SYMMETRY 4 ORBITAL  1 SYMMETRY CONTAMINATION OF 0.160D-02 HAS BEEN REMOVED
 EXTRA SYMMETRY OF MOS IN SYMMETRY 4:   1 1 1 1 2 3 1 1 2 3   1 2 3
 *** IN SYMMETRY 5 ORBITAL  1 SYMMETRY CONTAMINATION OF 0.998D-02 HAS BEEN REMOVED
 EXTRA SYMMETRY OF MOS IN SYMMETRY 5:   1 1 1 1 3 2 1 3 2 1   3 2 5 4 6 1 3 2 5 4   6 1
 *** IN SYMMETRY 6 ORBITAL  1 SYMMETRY CONTAMINATION OF 0.206D-02 HAS BEEN REMOVED
 EXTRA SYMMETRY OF MOS IN SYMMETRY 6:   1 1 1 1 3 2 1 1 3 2   1 3 2
 *** IN SYMMETRY 7 ORBITAL  1 SYMMETRY CONTAMINATION OF 0.206D-02 HAS BEEN REMOVED
 EXTRA SYMMETRY OF MOS IN SYMMETRY 7:   1 1 1 1 3 2 1 1 3 2   1 3 2
 EXTRA SYMMETRY OF MOS IN SYMMETRY 8:   1 1 1 2 3 1 3 2

 Wavefunction dump at record             5202.2

 Convergence thresholds  0.10E-01 (gradient)  0.10E-05 (energy)  0.10E-02 (step length)

 Weight factors for state symmetry  1:    0.10000
 Weight factors for state symmetry  2:    0.10000   0.10000   0.10000
 Weight factors for state symmetry  3:    0.10000   0.10000   0.10000
 Weight factors for state symmetry  4:    0.10000   0.10000   0.10000

 Number of orbital rotations:      211   (     4 Core/Active    117 Core/Virtual   0 Active/Active     90 Active/Virtual)
 Total number of variables:        239


 ITER. MIC  NCI  NEG     ENERGY(VAR)     ENERGY(PROJ)   ENERGY CHANGE     GRAD(0)  GRAD(ORB)   GRAD(CI)     STEP       TIME

   1   34   16    0    -144.91293893    -144.91501561   -0.00207668    0.07743118 0.00000000 0.00000000  0.37D-01      0.07
   2   17   20    0    -144.91502356    -144.91502375   -0.00000019    0.00072333 0.00000000 0.00000000  0.44D-03      0.15
   3   65   48    0    -144.91502375    -144.91502375   -0.00000000    0.00000009 0.00000000 0.00000000  0.66D-07      0.24

 ** WVFN ****  CONVERGENCE REACHED, FINAL GRADIENT:  0.43D-12



 Results for state 1.1
 =====================

 !MCSCF STATE 1.1 Energy             -144.940345032674
 Nuclear energy                         0.00000000
 Kinetic energy                        89.30181778
 One electron energy                 -257.06229396
 Two electron energy                  112.12194893
 Virial ratio                           2.62303913

 !MCSCF STATE 1.1 Dipole moment         0.00000000     0.00000000     0.00000000
 Dipole moment /Debye                   0.00000000     0.00000000     0.00000000



 Results for state 1.4
 =====================

 !MCSCF STATE 1.4 Energy             -144.940345032674
 Nuclear energy                         0.00000000
 Kinetic energy                        89.30181778
 One electron energy                 -257.06229396
 Two electron energy                  112.12194893
 Virial ratio                           2.62303913

 !MCSCF STATE 1.4 Dipole moment         0.00000000     0.00000000     0.00000000
 Dipole moment /Debye                   0.00000000     0.00000000     0.00000000

 Results for state 2.4
 =====================

 !MCSCF STATE 2.4 Energy             -144.940345032674
 Nuclear energy                         0.00000000
 Kinetic energy                        89.30181778
 One electron energy                 -257.06229396
 Two electron energy                  112.12194893
 Virial ratio                           2.62303913

 !MCSCF STATE 2.4 Dipole moment         0.00000000     0.00000000     0.00000000
 Dipole moment /Debye                   0.00000000     0.00000000     0.00000000

 Results for state 3.4
 =====================

 !MCSCF STATE 3.4 Energy             -144.855940747294
 Nuclear energy                         0.00000000
 Kinetic energy                        89.30181778
 One electron energy                 -257.06229396
 Two electron energy                  112.20635321
 Virial ratio                           2.62209398

 !MCSCF STATE 3.4 Dipole moment         0.00000000     0.00000000     0.00000000
 Dipole moment /Debye                   0.00000000     0.00000000     0.00000000



 Results for state 1.6
 =====================

 !MCSCF STATE 1.6 Energy             -144.940345032674
 Nuclear energy                         0.00000000
 Kinetic energy                        89.30181778
 One electron energy                 -257.06229396
 Two electron energy                  112.12194893
 Virial ratio                           2.62303913

 !MCSCF STATE 1.6 Dipole moment         0.00000000     0.00000000     0.00000000
 Dipole moment /Debye                   0.00000000     0.00000000     0.00000000

 Results for state 2.6
 =====================

 !MCSCF STATE 2.6 Energy             -144.940345032674
 Nuclear energy                         0.00000000
 Kinetic energy                        89.30181778
 One electron energy                 -257.06229396
 Two electron energy                  112.12194893
 Virial ratio                           2.62303913

 !MCSCF STATE 2.6 Dipole moment         0.00000000     0.00000000     0.00000000
 Dipole moment /Debye                   0.00000000     0.00000000     0.00000000

 Results for state 3.6
 =====================

 !MCSCF STATE 3.6 Energy             -144.855940747294
 Nuclear energy                         0.00000000
 Kinetic energy                        89.30181778
 One electron energy                 -257.06229396
 Two electron energy                  112.20635321
 Virial ratio                           2.62209398

 !MCSCF STATE 3.6 Dipole moment         0.00000000     0.00000000     0.00000000
 Dipole moment /Debye                   0.00000000     0.00000000     0.00000000



 Results for state 1.7
 =====================

 !MCSCF STATE 1.7 Energy             -144.940345032674
 Nuclear energy                         0.00000000
 Kinetic energy                        89.30181778
 One electron energy                 -257.06229396
 Two electron energy                  112.12194893
 Virial ratio                           2.62303913

 !MCSCF STATE 1.7 Dipole moment         0.00000000     0.00000000     0.00000000
 Dipole moment /Debye                   0.00000000     0.00000000     0.00000000

 Results for state 2.7
 =====================

 !MCSCF STATE 2.7 Energy             -144.940345032674
 Nuclear energy                         0.00000000
 Kinetic energy                        89.30181778
 One electron energy                 -257.06229396
 Two electron energy                  112.12194893
 Virial ratio                           2.62303913

 !MCSCF STATE 2.7 Dipole moment         0.00000000     0.00000000     0.00000000
 Dipole moment /Debye                   0.00000000     0.00000000     0.00000000

 Results for state 3.7
 =====================

 !MCSCF STATE 3.7 Energy             -144.855940747294
 Nuclear energy                         0.00000000
 Kinetic energy                        89.30181778
 One electron energy                 -257.06229396
 Two electron energy                  112.20635321
 Virial ratio                           2.62209398

 !MCSCF STATE 3.7 Dipole moment         0.00000000     0.00000000     0.00000000
 Dipole moment /Debye                   0.00000000     0.00000000     0.00000000

 State-averaged charge density matrix saved on record  5202.2 (density set 1)

 !MCSCF expec        <1.1|EKIN|1.1>    89.301817777886
 !MCSCF expec        <1.4|EKIN|1.4>    89.301817777887
 !MCSCF expec        <2.4|EKIN|2.4>    89.301817777886
 !MCSCF expec        <3.4|EKIN|3.4>    89.301817777887
 !MCSCF expec        <1.6|EKIN|1.6>    89.301817777887
 !MCSCF expec        <2.6|EKIN|2.6>    89.301817777887
 !MCSCF expec        <3.6|EKIN|3.6>    89.301817777887
 !MCSCF expec        <1.7|EKIN|1.7>    89.301817777887
 !MCSCF expec        <2.7|EKIN|2.7>    89.301817777887
 !MCSCF expec        <3.7|EKIN|3.7>    89.301817777887

 !MCSCF expec         <1.1|POT|1.1>   -21.243060963016
 !MCSCF expec         <1.4|POT|1.4>   -21.243060963016
 !MCSCF expec         <2.4|POT|2.4>   -21.243060963016
 !MCSCF expec         <3.4|POT|3.4>   -21.243060963016
 !MCSCF expec         <1.6|POT|1.6>   -21.243060963016
 !MCSCF expec         <2.6|POT|2.6>   -21.243060963016
 !MCSCF expec         <3.6|POT|3.6>   -21.243060963016
 !MCSCF expec         <1.7|POT|1.7>   -21.243060963016
 !MCSCF expec         <2.7|POT|2.7>   -21.243060963016
 !MCSCF expec         <3.7|POT|3.7>   -21.243060963016


 NATURAL ORBITALS (state averaged)
 =================================

   Orb     Occ        Energy       Coefficients

                                   1 1s      1 1s      1 1s      1 1s      1 1s      1 1s      1 1s      1 1s      1 3d0     1 3d2+ 
                                   1 3d0     1 3d2+    1 3d0     1 3d2+    1 3d0     1 3d2+    1 3d0     1 3d2+    1 3d0     1 3d2+ 
                                   1 3d0     1 3d2+    1 5g0     1 5g4+    1 5g2+    1 5g0     1 5g4+    1 5g2+    1 5g0     1 5g4+ 
                                   1 5g2+ 

   1.1  2.00000    -4.707375     1.000140 -0.000276  0.000110 -0.000081 -0.000054  0.000307 -0.001068  0.000914  0.000000  0.000000
                                 0.000000  0.000000  0.000000  0.000000  0.000000  0.000000  0.000000  0.000000  0.000000  0.000000
                                 0.000000  0.000000  0.000000  0.000000  0.000000  0.000000  0.000000  0.000000  0.000000  0.000000
                                 0.000000

   2.1  2.00000    -0.272603    -0.000064  1.000316 -0.000141  0.000094  0.000050 -0.000358  0.000663 -0.000560  0.000000  0.000000
                                 0.000000  0.000000  0.000000  0.000000  0.000000  0.000000  0.000000  0.000000  0.000000  0.000000
                                 0.000000  0.000000  0.000000  0.000000  0.000000  0.000000  0.000000  0.000000  0.000000  0.000000
                                 0.000000

   3.1  1.40000    -0.367816     0.000000  0.000000  0.000000  0.000000  0.000000  0.000000  0.000000  0.000000  0.999819  0.000000
                                -0.000044  0.000000 -0.000185  0.000000 -0.000062  0.000000  0.000199  0.000000  0.000024  0.000000
                                 0.000152  0.000000  0.000000  0.000000  0.000000  0.000000  0.000000  0.000000  0.000000  0.000000
                                 0.000000

   4.1  1.40000    -0.367816     0.000000  0.000000  0.000000  0.000000  0.000000  0.000000  0.000000  0.000000  0.000000  0.999819
                                 0.000000 -0.000044  0.000000 -0.000185  0.000000 -0.000062  0.000000  0.000199  0.000000  0.000024
                                 0.000000  0.000152  0.000000  0.000000  0.000000  0.000000  0.000000  0.000000  0.000000  0.000000
                                 0.000000

                                   1 2px     1 2px     1 2px     1 2px     1 2px     1 2px     1 2px     1 2px     1 4f1+    1 4f3+ 
                                   1 4f1+    1 4f3+    1 4f1+    1 4f3+    1 4f1+    1 4f3+    1 6h1+    1 6h3+    1 6h5+    1 6h1+ 
                                   1 6h3+    1 6h5+ 

   1.2  2.00000    -3.031124     1.000068 -0.000025 -0.000017  0.000012  0.000005  0.000018 -0.000080  0.000010  0.000000  0.000000
                                 0.000000  0.000000  0.000000  0.000000  0.000000  0.000000  0.000000  0.000000  0.000000  0.000000
                                 0.000000  0.000000

                                   1 2py     1 2py     1 2py     1 2py     1 2py     1 2py     1 2py     1 2py     1 4f1-    1 4f3- 
                                   1 4f1-    1 4f3-    1 4f1-    1 4f3-    1 4f1-    1 4f3-    1 6h1-    1 6h3-    1 6h5-    1 6h1- 
                                   1 6h3-    1 6h5- 

   1.3  2.00000    -3.031124     1.000068 -0.000025 -0.000017  0.000012  0.000005  0.000018 -0.000080  0.000010  0.000000  0.000000
                                 0.000000  0.000000  0.000000  0.000000  0.000000  0.000000  0.000000  0.000000  0.000000  0.000000
                                 0.000000  0.000000

                                   1 3d2-    1 3d2-    1 3d2-    1 3d2-    1 3d2-    1 3d2-    1 3d2-    1 5g2-    1 5g4-    1 5g2- 
                                   1 5g4-    1 5g2-    1 5g4- 

   1.4  1.40000    -0.367816     0.999819 -0.000044 -0.000185 -0.000062  0.000199  0.000024  0.000152  0.000000  0.000000  0.000000
                                 0.000000  0.000000  0.000000

                                   1 2pz     1 2pz     1 2pz     1 2pz     1 2pz     1 2pz     1 2pz     1 2pz     1 4f0     1 4f2+ 
                                   1 4f0     1 4f2+    1 4f0     1 4f2+    1 4f0     1 4f2+    1 6h2+    1 6h4+    1 6h0     1 6h2+ 
                                   1 6h4+    1 6h0  

   1.5  2.00000    -3.031124     1.000068 -0.000025 -0.000017  0.000012  0.000005  0.000018 -0.000080  0.000010  0.000000  0.000000
                                 0.000000  0.000000  0.000000  0.000000  0.000000  0.000000  0.000000  0.000000  0.000000  0.000000
                                 0.000000  0.000000

                                   1 3d1+    1 3d1+    1 3d1+    1 3d1+    1 3d1+    1 3d1+    1 3d1+    1 5g1+    1 5g3+    1 5g1+ 
                                   1 5g3+    1 5g1+    1 5g3+ 

   1.6  1.40000    -0.367816     0.999819 -0.000044 -0.000185 -0.000062  0.000199  0.000024  0.000152  0.000000  0.000000  0.000000
                                 0.000000  0.000000  0.000000

                                   1 3d1-    1 3d1-    1 3d1-    1 3d1-    1 3d1-    1 3d1-    1 3d1-    1 5g1-    1 5g3-    1 5g1- 
                                   1 5g3-    1 5g1-    1 5g3- 

   1.7  1.40000    -0.367816     0.999819 -0.000044 -0.000185 -0.000062  0.000199  0.000024  0.000152  0.000000  0.000000  0.000000
                                 0.000000  0.000000  0.000000
 

 EXTRA SYMMETRY OF MOS IN SYMMETRY 1:   1 1 2 3 1 3 2 1 3 2   1 2 3 1 4 5 6 2 3 1   2 3 4 6 5 2 3 4 6 5   1
 EXTRA SYMMETRY OF MOS IN SYMMETRY 2:   1 1 1 1 3 2 1 3 2 1   3 2 5 4 6 1 2 3 5 4   6 1
 EXTRA SYMMETRY OF MOS IN SYMMETRY 3:   1 1 1 1 3 2 1 3 2 1   3 2 5 4 6 1 2 3 5 6   4 1
 EXTRA SYMMETRY OF MOS IN SYMMETRY 4:   1 1 1 1 3 2 1 1 2 3   1 2 3
 EXTRA SYMMETRY OF MOS IN SYMMETRY 5:   1 1 1 1 2 3 1 2 3 1   2 3 6 4 5 1 3 2 6 4   5 1
 EXTRA SYMMETRY OF MOS IN SYMMETRY 6:   1 1 1 1 2 3 1 1 2 3   1 2 3
 EXTRA SYMMETRY OF MOS IN SYMMETRY 7:   1 1 1 1 2 3 1 1 2 3   1 2 3
 EXTRA SYMMETRY OF MOS IN SYMMETRY 8:   1 1 1 2 3 1 2 3

 Natural orbital dump (state averaged) at molpro section  5202.2    (Orbital set 2)


 CI vector for state symmetry 1
 ==============================

 22 a a a          1.0000000

 TOTAL ENERGIES                      -144.94034503

 CI vector for state symmetry 2
 ==============================

 2a 2 a a          0.0000000   1.0000000   0.0000000
 aa a 2 2          0.8944272   0.0000000   0.4472136
 a2 2 a a         -0.4472136   0.0000000   0.8944272

 TOTAL ENERGIES                      -144.94034503  -144.94034503  -144.85594075

 CI vector for state symmetry 3
 ==============================

 aa 2 a 2          0.8909135  -0.0792036   0.4472136
 a2 a 2 a         -0.1460398   0.8824241   0.4472136
 2a a 2 a         -0.4300530  -0.4637396   0.7745967

 TOTAL ENERGIES                      -144.94034503  -144.94034503  -144.85594075

 CI vector for state symmetry 4
 ==============================

 aa 2 2 a          0.8816615  -0.1505753   0.4472136
 a2 a a 2          0.3662093   0.8160213  -0.4472136
 2a a a 2         -0.2975965   0.5580648   0.7745967

 TOTAL ENERGIES                      -144.94034503  -144.94034503  -144.85594075



 **********************************************************************************************************************************
 DATASETS  * FILE   NREC   LENGTH (MB)   RECORD NAMES
              1      21       54.04       500      610      700      900      950      970     1000      129      960     1100   
                                          VAR    BASINP    GEOM    SYMINP    ZMAT    AOBASIS   BASIS     P2S    ABASIS      S 
                                         1400     1410     1420     1200     1210     1080     1600     1650     1300     1700   
                                         EKIN       V       ECP      H0       H01     AOSYM     SMH    MOLCAS    ERIS     OPER   
                                         1380   
                                         JKOP   

              2       5        5.48       700     1000      520     4202     5202   
                                         GEOM     BASIS   MCVARS     RHF     MCSCF   

 PROGRAMS   *        TOTAL     MULTI       POP       RHF       INT
 CPU TIMES  *        25.43      0.33      0.00      0.32     24.67
 REAL TIME  *        29.65 SEC
 DISK USED  *       137.19 MB      
 **********************************************************************************************************************************


 PROGRAM * RHF-SCF (OPEN SHELL)       Authors: W. Meyer, H.-J. Werner


 NUMBER OF ELECTRONS:      10+    7-    SPACE SYMMETRY=1    SPIN SYMMETRY: Quartet 
 CONVERGENCE THRESHOLDS:    1.00E-05 (Density)    1.00E-07 (Energy)
 MAX. NUMBER OF ITERATIONS:        0
 INTERPOLATION TYPE:            DIIS
 INTERPOLATION STEPS:              2 (START)      1 (STEP)
 LEVEL SHIFTS:                 -0.60 (CLOSED) -0.30 (OPEN) 


 Singly occupied orbitals:      1.4       1.6       1.7
 Molecular orbitals read from record     5202.2  Type=MCSCF/NATURAL (state averaged)

 Molecular orbital dump at record        2101.2

 ITERATION    DDIFF          GRAD             ENERGY        2-EL.EN.            DIPOLE MOMENTS         DIIS   ORB.
    1      0.000D+00      0.000D+00      -144.94034503    224.243898    0.00000    0.00000    0.00000    0    start

 Final alpha occupancy:   4   1   1   1   1   1   1   0
 Final beta  occupancy:   4   1   1   0   1   0   0   0

 !RHF STATE 1.1 Energy               -144.940345032674
 Nuclear energy                         0.00000000
 One-electron energy                 -257.06229396
 Two-electron energy                  112.12194893
 Virial quotient                       -1.62303913
 !RHF STATE 1.1 Dipole moment           0.00000000     0.00000000     0.00000000
 Dipole moment /Debye                   0.00000000     0.00000000     0.00000000
 

 !RHF expec          <1.1|EKIN|1.1>    89.301817777886
 
 !RHF expec           <1.1|POT|1.1>   -21.243060963016

 ELECTRON ORBITALS
 =================


   Orb  Occ    Energy  Couls-En    Coefficients

                                   1 1s      1 1s      1 1s      1 1s      1 1s      1 1s      1 1s      1 1s      1 3d0     1 3d2+ 
                                   1 3d0     1 3d2+    1 3d0     1 3d2+    1 3d0     1 3d2+    1 3d0     1 3d2+    1 3d0     1 3d2+ 
                                   1 3d0     1 3d2+    1 5g0     1 5g4+    1 5g2+    1 5g0     1 5g4+    1 5g2+    1 5g0     1 5g4+ 
                                   1 5g2+ 

   1.1   2    -4.7074  -24.1102  1.000140 -0.000276  0.000110 -0.000081 -0.000054  0.000307 -0.001068  0.000914  0.000000  0.000000
                                 0.000000  0.000000  0.000000  0.000000  0.000000  0.000000  0.000000  0.000000  0.000000  0.000000
                                 0.000000  0.000000  0.000000  0.000000  0.000000  0.000000  0.000000  0.000000  0.000000  0.000000
                                 0.000000

   2.1   2    -0.2726   -6.4939 -0.000064  1.000316 -0.000141  0.000094  0.000050 -0.000358  0.000663 -0.000560  0.000000  0.000000
                                 0.000000  0.000000  0.000000  0.000000  0.000000  0.000000  0.000000  0.000000  0.000000  0.000000
                                 0.000000  0.000000  0.000000  0.000000  0.000000  0.000000  0.000000  0.000000  0.000000  0.000000
                                 0.000000

   3.1   2    -0.3678  -14.7132  0.000000  0.000000  0.000000  0.000000  0.000000  0.000000  0.000000  0.000000  0.999819  0.000000
                                -0.000044  0.000000 -0.000185  0.000000 -0.000062  0.000000  0.000199  0.000000  0.000024  0.000000
                                 0.000152  0.000000  0.000000  0.000000  0.000000  0.000000  0.000000  0.000000  0.000000  0.000000
                                 0.000000

   4.1   2    -0.3678  -14.7132  0.000000  0.000000  0.000000  0.000000  0.000000  0.000000  0.000000  0.000000  0.000000  0.999819
                                 0.000000 -0.000044  0.000000 -0.000185  0.000000 -0.000062  0.000000  0.000199  0.000000  0.000024
                                 0.000000  0.000152  0.000000  0.000000  0.000000  0.000000  0.000000  0.000000  0.000000  0.000000
                                 0.000000

                                   1 2px     1 2px     1 2px     1 2px     1 2px     1 2px     1 2px     1 2px     1 4f1+    1 4f3+ 
                                   1 4f1+    1 4f3+    1 4f1+    1 4f3+    1 4f1+    1 4f3+    1 6h1+    1 6h3+    1 6h5+    1 6h1+ 
                                   1 6h3+    1 6h5+ 

   1.2   2    -3.0311  -20.5972  1.000068 -0.000025 -0.000017  0.000012  0.000005  0.000018 -0.000080  0.000010  0.000000  0.000000
                                 0.000000  0.000000  0.000000  0.000000  0.000000  0.000000  0.000000  0.000000  0.000000  0.000000
                                 0.000000  0.000000

                                   1 2py     1 2py     1 2py     1 2py     1 2py     1 2py     1 2py     1 2py     1 4f1-    1 4f3- 
                                   1 4f1-    1 4f3-    1 4f1-    1 4f3-    1 4f1-    1 4f3-    1 6h1-    1 6h3-    1 6h5-    1 6h1- 
                                   1 6h3-    1 6h5- 

   1.3   2    -3.0311  -20.5972  1.000068 -0.000025 -0.000017  0.000012  0.000005  0.000018 -0.000080  0.000010  0.000000  0.000000
                                 0.000000  0.000000  0.000000  0.000000  0.000000  0.000000  0.000000  0.000000  0.000000  0.000000
                                 0.000000  0.000000

                                   1 3d2-    1 3d2-    1 3d2-    1 3d2-    1 3d2-    1 3d2-    1 3d2-    1 5g2-    1 5g4-    1 5g2- 
                                   1 5g4-    1 5g2-    1 5g4- 

   1.4   +    -0.3678  -14.7132  0.999819 -0.000044 -0.000185 -0.000062  0.000199  0.000024  0.000152  0.000000  0.000000  0.000000
                                 0.000000  0.000000  0.000000

                                   1 2pz     1 2pz     1 2pz     1 2pz     1 2pz     1 2pz     1 2pz     1 2pz     1 4f0     1 4f2+ 
                                   1 4f0     1 4f2+    1 4f0     1 4f2+    1 4f0     1 4f2+    1 6h2+    1 6h4+    1 6h0     1 6h2+ 
                                   1 6h4+    1 6h0  

   1.5   2    -3.0311  -20.5972  1.000068 -0.000025 -0.000017  0.000012  0.000005  0.000018 -0.000080  0.000010  0.000000  0.000000
                                 0.000000  0.000000  0.000000  0.000000  0.000000  0.000000  0.000000  0.000000  0.000000  0.000000
                                 0.000000  0.000000

                                   1 3d1+    1 3d1+    1 3d1+    1 3d1+    1 3d1+    1 3d1+    1 3d1+    1 5g1+    1 5g3+    1 5g1+ 
                                   1 5g3+    1 5g1+    1 5g3+ 

   1.6   +    -0.3678  -14.7132  0.999819 -0.000044 -0.000185 -0.000062  0.000199  0.000024  0.000152  0.000000  0.000000  0.000000
                                 0.000000  0.000000  0.000000

                                   1 3d1-    1 3d1-    1 3d1-    1 3d1-    1 3d1-    1 3d1-    1 3d1-    1 5g1-    1 5g3-    1 5g1- 
                                   1 5g3-    1 5g1-    1 5g3- 

   1.7   +    -0.3678  -14.7132  0.999819 -0.000044 -0.000185 -0.000062  0.000199  0.000024  0.000152  0.000000  0.000000  0.000000
                                 0.000000  0.000000  0.000000

 HOMO      4.1    -0.367816 =     -10.0088eV
 LUMO      2.2     0.044495 =       1.2108eV
 LUMO-HOMO         0.412311 =      11.2195eV


 **********************************************************************************************************************************
 DATASETS  * FILE   NREC   LENGTH (MB)   RECORD NAMES
              1      21       54.04       500      610      700      900      950      970     1000      129      960     1100   
                                          VAR    BASINP    GEOM    SYMINP    ZMAT    AOBASIS   BASIS     P2S    ABASIS      S 
                                         1400     1410     1420     1200     1210     1080     1600     1650     1300     1700   
                                         EKIN       V       ECP      H0       H01     AOSYM     SMH    MOLCAS    ERIS     OPER   
                                         1380   
                                         JKOP   

              2       6        8.21       700     1000      520     4202     5202     2101   
                                         GEOM     BASIS   MCVARS     RHF     MCSCF     RHF  

 PROGRAMS   *        TOTAL       RHF     MULTI       POP       RHF       INT
 CPU TIMES  *        25.47      0.04      0.33      0.00      0.32     24.67
 REAL TIME  *        30.75 SEC
 DISK USED  *       137.19 MB      
 **********************************************************************************************************************************
 SETTING SCF(I)         =      -144.94034503  AU                              
 SETTING _CC_NORM_MAX   =         2.00000000                                  


 PROGRAM * CI (Multireference internally contracted CI)     Authors: H.-J. Werner, P.J. Knowles, 1987


 Convergence thresholds:  THRVAR = 1.00D-08  THRDEN = 1.00D-06

 Number of optimized states:  1  Roots:   1
 Number of reference states:  1  Roots:   1

 Reference symmetry:                   1   Quartet 
 Number of electrons:                 17
 Maximum number of shells:             3
 Maximum number of spin couplings:    14

 Reference space:        1 conf        1 CSFs
 N elec internal:       85 conf       85 CSFs
 N-1 el internal:      136 conf      346 CSFs
 N-2 el internal:       52 conf      409 CSFs

 Number of electrons in valence space:                     17
 Maximum number of open shell orbitals in reference space:  3
 Maximum number of open shell orbitals in internal spaces:  7


 Number of closed-shell orbitals:   7 (   4   1   1   0   1   0   0   0 )
 Number of active  orbitals:        3 (   0   0   0   1   0   1   1   0 )
 Number of external orbitals:     134 (  27  21  21  12  21  12  12   8 )

 Molecular orbitals read from record     2101.2  Type=RHF/CANONICAL (state 1.1)

 Coulomb and exchange operators available. No transformation done.

 Number of p-space configurations:   1

 Reference wavefunction optimized for reference space (refopt=1)

 State     Reference Energy 
   1        -144.94034503

 Number of blocks in overlap matrix:    94   Smallest eigenvalue:  0.10D+01
 Number of N-2 electron functions:      94
 Number of N-1 electron functions:     346

 Number of internal configurations:                    4
 Number of singly external configurations:          5436
 Number of doubly external configurations:        108060
 Total number of contracted configurations:       113500
 Total number of uncontracted configurations:     480667

 Diagonal Coupling coefficients finished.               Storage:   26464 words, CPU-Time:      0.00 seconds.
 Energy denominators for pairs finished in 1 passes.    Storage:   67179 words, CPU-time:      0.01 seconds.

  ITER. STATE  ROOT     SQ.NORM     CORR.ENERGY   TOTAL ENERGY   ENERGY CHANGE       DEN1      VAR(S)    VAR(P)      TIME
    1     1     1     1.00000000     0.00000000  -144.94034503    -0.00000000    -0.82186876  0.22D-01  0.11D+00     0.01
    2     1     1     1.08565012    -0.67760983  -145.61795486    -0.67760983    -0.01833672  0.18D-02  0.28D-02     0.26
    3     1     1     1.07446211    -0.69481862  -145.63516365    -0.01720879    -0.00054426  0.52D-04  0.13D-03     0.51
    4     1     1     1.07363971    -0.69533619  -145.63568122    -0.00051757    -0.00003204  0.71D-05  0.44D-05     0.73
    5     1     1     1.07371701    -0.69536840  -145.63571343    -0.00003221    -0.00000128  0.18D-06  0.18D-06     0.98
    6     1     1     1.07379475    -0.69536971  -145.63571475    -0.00000131    -0.00000005  0.89D-08  0.64D-08     1.22
    7     1     1     1.07380536    -0.69536977  -145.63571480    -0.00000006    -0.00000000  0.32D-09  0.36D-09     1.47


 =====================================
 Analysis of CPU times by interactions
 =====================================

       I      S      P

 I   0.0%
 S   0.0%  28.6%
 P   0.7%   6.8%  17.0%

 Initialization:   0.7%
 Other:           46.3%

 Total CPU:        1.5 seconds
 =====================================



 Reference coefficients greater than 0.0500000
 =============================================
 222222/2//           0.9647376



 RESULTS FOR STATE 1.1
 =====================

 Coefficient of reference function:   C(0) = 0.96473763 (fixed)   0.96473763 (relaxed)

 Energy contributions of configuration classes

 CLASS          SQ.NORM        ECORR1        ECORR2
 +++++++++++++++++++++++++++++++++++++++++++++++++++
 Internals    0.00058963   -0.00407843   -0.00417747
 Singles      0.01496088   -0.11139798   -0.11336344
 Pairs        0.05888799   -0.57989337   -0.57782886
 Total        1.07443850   -0.69536977   -0.69536977
 +++++++++++++++++++++++++++++++++++++++++++++++++++


 Reference energy                    -144.94034503
 Nuclear energy                         0.00000000
 Kinetic energy                        89.76383273
 One electron energy                 -256.42664460
 Two electron energy                  110.79092980
 Virial quotient                       -1.62243200
 Correlation energy                    -0.69536977
 !CI(SD) STATE 1.1 Energy            -145.635714804810

 Properties without orbital relaxation:

 !CI(SD) STATE 1.1 Dipole moment        0.00000000     0.00000000     0.00000000
 Dipole moment /Debye                   0.00000000     0.00000000     0.00000000

 Cluster corrected energies          -145.68747709 (Davidson, fixed reference)
 Cluster corrected energies          -145.68747709 (Davidson, relaxed reference)

 Cluster corrected energies          -145.68253859 (Pople, fixed reference)
 Cluster corrected energies          -145.68253859 (Pople, relaxed reference)

 

 !CI(SD) expec       <1.1|EKIN|1.1>    89.763832731803
 
 !CI(SD) expec        <1.1|POT|1.1>   -21.236011170862


 **********************************************************************************************************************************
 DATASETS  * FILE   NREC   LENGTH (MB)   RECORD NAMES
              1      21       54.04       500      610      700      900      950      970     1000      129      960     1100   
                                          VAR    BASINP    GEOM    SYMINP    ZMAT    AOBASIS   BASIS     P2S    ABASIS      S 
                                         1400     1410     1420     1200     1210     1080     1600     1650     1300     1700   
                                         EKIN       V       ECP      H0       H01     AOSYM     SMH    MOLCAS    ERIS     OPER   
                                         1380   
                                         JKOP   

              2       6        8.21       700     1000      520     4202     5202     2101   
                                         GEOM     BASIS   MCVARS     RHF     MCSCF     RHF  

 PROGRAMS   *        TOTAL        CI       RHF     MULTI       POP       RHF       INT
 CPU TIMES  *        26.98      1.51      0.04      0.33      0.00      0.32     24.67
 REAL TIME  *        36.72 SEC
 DISK USED  *       137.19 MB      
 **********************************************************************************************************************************
 SETTING POSTHF(I)      =      -145.63571480  AU                              
                                                                                                                                                                                                                                                                

         SCF            POSTHF       EKIN           POT
    -144.9403450   -145.6357148   89.76383273   -21.23601117
                                                  

 CI/USERDEF energy=   -145.635714804810

        CI              RHF-SCF         MULTI           RHF-SCF 
   -145.63571480   -144.94034503   -144.85594075   -144.94426222
 **********************************************************************************************************************************
 Molpro calculation terminated
 Variable memory released
