
 Primary working directories    : /global/cscratch1/sd/aannabe
 Secondary working directories  : /global/cscratch1/sd/aannabe
 Wavefunction directory         : /global/homes/a/aannabe/wfu/
 Main file repository           : /global/cscratch1/sd/aannabe/

 SHA1      : 2873118e99aab1bc19f5b6fc1784693c06d15c95
 NAME      : 2015.1.8
 ARCHNAME  : linux/x86_64
 FC        : /opt/cray/pe/craype/2.5.5/bin/ftn
 BLASLIB   : -Wl,-_start-group /opt/intel/compilers_and_libraries_2016.3.210/linux/mkl/lib/intel64/libmkl_intel_ilp64.a /opt/intel/compilers_and_libraries_2016.3.210/linux/mkl/lib/intel64/libmkl_intel_thread.a /opt/intel/compilers_and_libraries_2016.3.210/linux/mkl/lib/intel64/libmkl_core.a -Wl,-_end-group
 id        : lbl

 Nodes     nprocs
 nid00465     1

 Using customized tuning parameters: mindgm=8; mindgv=16; mindgc=4; mindgr=1; noblas=0; minvec=7
 default implementation of scratch files=df  

 ***,Mn
 memory,512,m
 gthresh,twoint=1.e-12
 
 gprint,basis,orbitals
 gexpec,ekin,pot
 
 angstrom
 geometry={
 1                                                                               ! Number of atoms
 Mn 0.0 0.0 0.0
 }
 
 basis={
 Including file /global/homes/a/aannabe/docs/accurate/ccECP_Kh/pps/Mn.pp
                                              !include,/global/homes/a/aannabe/docs/accurate/ccECP_Kh/basis/aug-cc-pVnZ/Mn_tz.basis
 Including file /global/homes/a/aannabe/docs/accurate/ccECP_Kh/basis/cc-pVnZ/Mn_tz.basis
 }
 
 {rhf
  start,atden
  print,orbitals=2
  wf,15,1,5
  occ,4,1,1,1,1,1,1,0
  open,3.1,4.1,1.4,1.6,1.7
  sym,1,1,1,3,2
  orbital,4202.2
 }
 pop
 {multi
  start,4202.2
  occ,4,1,1,1,1,1,1,0
  closed,2,1,1,0,1,0,0
  wf,15,1,5;state,1
  natorb,ci,print
  orbital,5202.2
 }
 {rhf,nitord=1,maxit=0
  start,5202.2
  wf,15,1,5
  occ,4,1,1,1,1,1,1,0
  open,3.1,4.1,1.4,1.6,1.7
 }
 
 scf(i)=energy
 
 _CC_NORM_MAX=2.0
 {uccsd(t)
 maxit,100
 core
 }
 posthf(i)=energy
 
 table,scf,posthf,ekin,pot
 save,3.csv,new
 
 

 Variables initialized (889), CPU time= 0.01 sec
 Commands  initialized (702), CPU time= 0.00 sec, 572 directives.
 Default parameters read. Elapsed time= 0.19 sec

 Checking input...
 Passed
1


                                         ***  PROGRAM SYSTEM MOLPRO  ***
                                       Copyright, TTI GmbH Stuttgart, 2015
                                    Version 2015.1 linked Sep  7 2016 23:09:38


 **********************************************************************************************************************************
 LABEL *   Mn                                                                            
  64 bit serial version                                                                  DATE: 13-Nov-18          TIME: 22:23:03  
 **********************************************************************************************************************************

 SHA1:             2873118e99aab1bc19f5b6fc1784693c06d15c95
 **********************************************************************************************************************************

 THRESHOLDS:

 ZERO    =  1.00D-12  ONEINT  =  1.00D-12  TWOINT  =  1.00D-12  PREFAC  =  1.00D-14  LOCALI  =  1.00D-09  EORDER  =  1.00D-04
 ENERGY  =  0.00D+00  ETEST   =  0.00D+00  EDENS   =  0.00D+00  THRDEDEF=  1.00D-06  GRADIENT=  1.00D-02  STEP    =  1.00D-03
 ORBITAL =  1.00D-05  CIVEC   =  1.00D-05  COEFF   =  1.00D-04  PRINTCI =  5.00D-02  PUNCHCI =  9.90D+01  OPTGRAD =  3.00D-04
 OPTENERG=  1.00D-06  OPTSTEP =  3.00D-04  THRGRAD =  1.00D-10  COMPRESS=  1.00D-11  VARMIN  =  1.00D-07  VARMAX  =  1.00D-03
 THRDOUB =  0.00D+00  THRDIV  =  1.00D-05  THRRED  =  1.00D-07  THRPSP  =  1.00D+00  THRDC   =  1.00D-10  THRCS   =  1.00D-10
 THRNRM  =  1.00D-08  THREQ   =  0.00D+00  THRDE   =  1.00D+00  THRREF  =  1.00D-05  SPARFAC =  1.00D+00  THRDLP  =  1.00D-07
 THRDIA  =  1.00D-10  THRDLS  =  1.00D-07  THRGPS  =  0.00D+00  THRKEX  =  0.00D+00  THRDIS  =  2.00D-01  THRVAR  =  1.00D-10
 THRLOC  =  1.00D-06  THRGAP  =  1.00D-06  THRLOCT = -1.00D+00  THRGAPT = -1.00D+00  THRORB  =  1.00D-06  THRMLTP =  0.00D+00
 THRCPQCI=  1.00D-10  KEXTA   =  0.00D+00  THRCOARS=  0.00D+00  SYMTOL  =  1.00D-06  GRADTOL =  1.00D-06  THROVL  =  1.00D-08
 THRORTH =  1.00D-08  GRID    =  1.00D-06  GRIDMAX =  1.00D-03  DTMAX   =  0.00D+00  THROCCDE=  1.00D-01  THROCCDE=  1.00D-01



 ZUNIT=ANG
 

Geometry recognized as XYZ


 Variable memory set to  512000000 words,  buffer space   230000 words

 SETTING BASIS          =    USERDEF


 Recomputing integrals since basis changed


 Using spherical harmonics



 PROGRAM * SEWARD (Integral evaluation for generally contracted gaussian basis sets)     Author: Roland Lindh, 1990

 Geometry written to block  1 of record 700

 Orientation using atomic masses  
 Molecule type: Atom
 Symmetry elements: X,Y,Z
 Rotational constants:       0.0000000      0.0000000      0.0000000 GHz  (calculated with average atomic masses)

 Point group  D2h 



 ATOMIC COORDINATES

 NR  ATOM    CHARGE       X              Y              Z

   1  MN     15.00    0.000000000    0.000000000    0.000000000


          MN  CORE POTENTIAL

          d POTENTIAL

 POWERS             1              3              2              2
 EXPONENTIALS   21.91937       21.35527       21.27163       7.939140    
 COEFFICIENTS   15.00000       328.7906      -162.0517      -1.826943    

          s - d POTENTIAL

 POWERS             2              2
 EXPONENTIALS   18.92045       8.327648    
 COEFFICIENTS   244.6687       33.54163    

          p - d POTENTIAL

 POWERS             2              2
 EXPONENTIALS   20.17347       7.800479    
 COEFFICIENTS   162.3503       24.17957    


 BASIS DATA

   Nr Sym  Nuc  Type         Exponents   Contraction coefficients

    1.1 Ag    1  1s          76.008334     0.000993   -0.000199   -0.000091   -0.000526    0.000000
    2.1 Ag                   39.277974    -0.014796    0.003352    0.005374    0.011380    0.000000
    3.1 Ag                   20.405805     0.120710   -0.029413   -0.058494   -0.116034    0.000000
    4.1 Ag                   12.218680    -0.124001    0.032091    0.056345    0.149329    0.000000
    5.1 Ag                    7.182690    -0.320200    0.083152    0.227874    0.360154    0.000000
                              3.850780    -0.105622    0.021283   -0.008420    0.025174    0.000000
                              2.142489     0.472721   -0.129989   -0.320777   -1.170125    0.000000
                              1.049631     0.620387   -0.239006   -0.813137   -0.872123    0.000000
                              0.508682     0.204553   -0.180315    0.326475    2.550633    0.000000
                              0.192243     0.005924    0.110148    1.447540    0.090343    0.000000
                              0.108899    -0.000097    0.404426    0.021321   -2.210588    0.000000
                              0.053425    -0.000185    0.517307   -0.678323    0.470582    0.000000
                              0.025236     0.000061    0.148139   -0.452828    0.832175    1.000000
    6.1 Ag    1  1s           1.199951     1.000000
    7.1 Ag    1  1s           3.121964     1.000000
    8.1 Ag    1  3d0        132.688182     0.000030
                             45.266024     0.005294
                             23.267336     0.029143
                             10.605694     0.076775
                              5.074684     0.168551
                              2.469857     0.256832
                              1.205883     0.289891
                              0.590569     0.257154
                              0.292055     0.181726
                              0.149190     0.089986
                              0.076511     0.034595
    9.1 Ag    1  3d2+       132.688182     0.000030
                             45.266024     0.005294
                             23.267336     0.029143
                             10.605694     0.076775
                              5.074684     0.168551
                              2.469857     0.256832
                              1.205883     0.289891
                              0.590569     0.257154
                              0.292055     0.181726
                              0.149190     0.089986
                              0.076511     0.034595
   10.1 Ag    1  3d0        132.688182    -0.000021
                             45.266024    -0.005449
                             23.267336    -0.029032
                             10.605694    -0.079825
                              5.074684    -0.174415
                              2.469857    -0.253404
                              1.205883    -0.174305
                              0.590569     0.045081
                              0.292055     0.345760
                              0.149190     0.263725
                              0.076511     0.371715
   11.1 Ag    1  3d2+       132.688182    -0.000021
                             45.266024    -0.005449
                             23.267336    -0.029032
                             10.605694    -0.079825
                              5.074684    -0.174415
                              2.469857    -0.253404
                              1.205883    -0.174305
                              0.590569     0.045081
                              0.292055     0.345760
                              0.149190     0.263725
                              0.076511     0.371715
   12.1 Ag    1  3d0        132.688182     0.000060
                             45.266024     0.008385
                             23.267336     0.045800
                             10.605694     0.129215
                              5.074684     0.284327
                              2.469857     0.270760
                              1.205883    -0.101591
                              0.590569    -0.580677
                              0.292055    -0.181696
                              0.149190     0.021003
                              0.076511     0.723658
   13.1 Ag    1  3d2+       132.688182     0.000060
                             45.266024     0.008385
                             23.267336     0.045800
                             10.605694     0.129215
                              5.074684     0.284327
                              2.469857     0.270760
                              1.205883    -0.101591
                              0.590569    -0.580677
                              0.292055    -0.181696
                              0.149190     0.021003
                              0.076511     0.723658
   14.1 Ag    1  3d0        132.688182     0.000000
                             45.266024     0.000000
                             23.267336     0.000000
                             10.605694     0.000000
                              5.074684     0.000000
                              2.469857     0.000000
                              1.205883     0.000000
                              0.590569     0.000000
                              0.292055     0.000000
                              0.149190     0.000000
                              0.076511     1.000000
   15.1 Ag    1  3d2+       132.688182     0.000000
                             45.266024     0.000000
                             23.267336     0.000000
                             10.605694     0.000000
                              5.074684     0.000000
                              2.469857     0.000000
                              1.205883     0.000000
                              0.590569     0.000000
                              0.292055     0.000000
                              0.149190     0.000000
                              0.076511     1.000000
   16.1 Ag    1  3d0          1.999257     1.000000
   17.1 Ag    1  3d2+         1.999257     1.000000
   18.1 Ag    1  3d0          3.454746     1.000000
   19.1 Ag    1  3d2+         3.454746     1.000000
   20.1 Ag    1  5g0          1.740920     1.000000
   21.1 Ag    1  5g4+         1.740920     1.000000
   22.1 Ag    1  5g2+         1.740920     1.000000
   23.1 Ag    1  5g0          4.628708     1.000000
   24.1 Ag    1  5g4+         4.628708     1.000000
   25.1 Ag    1  5g2+         4.628708     1.000000
    1.2 B3u   1  2px        113.479709     0.000103    0.000019   -0.000197    0.000014    0.000000
    2.2 B3u                  58.160819    -0.000894   -0.000024    0.001354    0.000421    0.000000
    3.2 B3u                  30.043076     0.008844   -0.001224   -0.010102   -0.008573    0.000000
    4.2 B3u                  16.753323    -0.019685    0.002320    0.030603    0.038797    0.000000
    5.2 B3u                  10.705604    -0.069190    0.020758    0.046200    0.099338    0.000000
                              5.557903     0.011508   -0.011572   -0.017588   -0.144445    0.000000
                              3.080151     0.282313   -0.062919   -0.395920   -0.821182    0.000000
                              1.582963     0.438678   -0.136754   -0.419093   -0.250785    0.000000
                              0.810922     0.309843   -0.067295    0.075017    1.790170    0.000000
                              0.413396     0.083945   -0.031024    1.092986   -0.399547    0.000000
                              0.195480     0.007517    0.378981    0.008680   -1.294382    0.000000
                              0.072688     0.001100    0.507824   -0.756369    0.847047    0.000000
                              0.035877     0.000290    0.260941   -0.045149    0.151710    1.000000
    6.2 B3u   1  2px          1.467265     1.000000
    7.2 B3u   1  2px          5.604722     1.000000
    8.2 B3u   1  4f1+         0.677099     1.000000
    9.2 B3u   1  4f3+         0.677099     1.000000
   10.2 B3u   1  4f1+         2.824255     1.000000
   11.2 B3u   1  4f3+         2.824255     1.000000
   12.2 B3u   1  4f1+         6.309190     1.000000
   13.2 B3u   1  4f3+         6.309190     1.000000
    1.3 B2u   1  2py        113.479709     0.000103    0.000019   -0.000197    0.000014    0.000000
    2.3 B2u                  58.160819    -0.000894   -0.000024    0.001354    0.000421    0.000000
    3.3 B2u                  30.043076     0.008844   -0.001224   -0.010102   -0.008573    0.000000
    4.3 B2u                  16.753323    -0.019685    0.002320    0.030603    0.038797    0.000000
    5.3 B2u                  10.705604    -0.069190    0.020758    0.046200    0.099338    0.000000
                              5.557903     0.011508   -0.011572   -0.017588   -0.144445    0.000000
                              3.080151     0.282313   -0.062919   -0.395920   -0.821182    0.000000
                              1.582963     0.438678   -0.136754   -0.419093   -0.250785    0.000000
                              0.810922     0.309843   -0.067295    0.075017    1.790170    0.000000
                              0.413396     0.083945   -0.031024    1.092986   -0.399547    0.000000
                              0.195480     0.007517    0.378981    0.008680   -1.294382    0.000000
                              0.072688     0.001100    0.507824   -0.756369    0.847047    0.000000
                              0.035877     0.000290    0.260941   -0.045149    0.151710    1.000000
    6.3 B2u   1  2py          1.467265     1.000000
    7.3 B2u   1  2py          5.604722     1.000000
    8.3 B2u   1  4f1-         0.677099     1.000000
    9.3 B2u   1  4f3-         0.677099     1.000000
   10.3 B2u   1  4f1-         2.824255     1.000000
   11.3 B2u   1  4f3-         2.824255     1.000000
   12.3 B2u   1  4f1-         6.309190     1.000000
   13.3 B2u   1  4f3-         6.309190     1.000000
    1.4 B1g   1  3d2-       132.688182     0.000030   -0.000021    0.000060    0.000000
    2.4 B1g                  45.266024     0.005294   -0.005449    0.008385    0.000000
    3.4 B1g                  23.267336     0.029143   -0.029032    0.045800    0.000000
    4.4 B1g                  10.605694     0.076775   -0.079825    0.129215    0.000000
                              5.074684     0.168551   -0.174415    0.284327    0.000000
                              2.469857     0.256832   -0.253404    0.270760    0.000000
                              1.205883     0.289891   -0.174305   -0.101591    0.000000
                              0.590569     0.257154    0.045081   -0.580677    0.000000
                              0.292055     0.181726    0.345760   -0.181696    0.000000
                              0.149190     0.089986    0.263725    0.021003    0.000000
                              0.076511     0.034595    0.371715    0.723658    1.000000
    5.4 B1g   1  3d2-         1.999257     1.000000
    6.4 B1g   1  3d2-         3.454746     1.000000
    7.4 B1g   1  5g2-         1.740920     1.000000
    8.4 B1g   1  5g4-         1.740920     1.000000
    9.4 B1g   1  5g2-         4.628708     1.000000
   10.4 B1g   1  5g4-         4.628708     1.000000
    1.5 B1u   1  2pz        113.479709     0.000103    0.000019   -0.000197    0.000014    0.000000
    2.5 B1u                  58.160819    -0.000894   -0.000024    0.001354    0.000421    0.000000
    3.5 B1u                  30.043076     0.008844   -0.001224   -0.010102   -0.008573    0.000000
    4.5 B1u                  16.753323    -0.019685    0.002320    0.030603    0.038797    0.000000
    5.5 B1u                  10.705604    -0.069190    0.020758    0.046200    0.099338    0.000000
                              5.557903     0.011508   -0.011572   -0.017588   -0.144445    0.000000
                              3.080151     0.282313   -0.062919   -0.395920   -0.821182    0.000000
                              1.582963     0.438678   -0.136754   -0.419093   -0.250785    0.000000
                              0.810922     0.309843   -0.067295    0.075017    1.790170    0.000000
                              0.413396     0.083945   -0.031024    1.092986   -0.399547    0.000000
                              0.195480     0.007517    0.378981    0.008680   -1.294382    0.000000
                              0.072688     0.001100    0.507824   -0.756369    0.847047    0.000000
                              0.035877     0.000290    0.260941   -0.045149    0.151710    1.000000
    6.5 B1u   1  2pz          1.467265     1.000000
    7.5 B1u   1  2pz          5.604722     1.000000
    8.5 B1u   1  4f0          0.677099     1.000000
    9.5 B1u   1  4f2+         0.677099     1.000000
   10.5 B1u   1  4f0          2.824255     1.000000
   11.5 B1u   1  4f2+         2.824255     1.000000
   12.5 B1u   1  4f0          6.309190     1.000000
   13.5 B1u   1  4f2+         6.309190     1.000000
    1.6 B2g   1  3d1+       132.688182     0.000030   -0.000021    0.000060    0.000000
    2.6 B2g                  45.266024     0.005294   -0.005449    0.008385    0.000000
    3.6 B2g                  23.267336     0.029143   -0.029032    0.045800    0.000000
    4.6 B2g                  10.605694     0.076775   -0.079825    0.129215    0.000000
                              5.074684     0.168551   -0.174415    0.284327    0.000000
                              2.469857     0.256832   -0.253404    0.270760    0.000000
                              1.205883     0.289891   -0.174305   -0.101591    0.000000
                              0.590569     0.257154    0.045081   -0.580677    0.000000
                              0.292055     0.181726    0.345760   -0.181696    0.000000
                              0.149190     0.089986    0.263725    0.021003    0.000000
                              0.076511     0.034595    0.371715    0.723658    1.000000
    5.6 B2g   1  3d1+         1.999257     1.000000
    6.6 B2g   1  3d1+         3.454746     1.000000
    7.6 B2g   1  5g1+         1.740920     1.000000
    8.6 B2g   1  5g3+         1.740920     1.000000
    9.6 B2g   1  5g1+         4.628708     1.000000
   10.6 B2g   1  5g3+         4.628708     1.000000
    1.7 B3g   1  3d1-       132.688182     0.000030   -0.000021    0.000060    0.000000
    2.7 B3g                  45.266024     0.005294   -0.005449    0.008385    0.000000
    3.7 B3g                  23.267336     0.029143   -0.029032    0.045800    0.000000
    4.7 B3g                  10.605694     0.076775   -0.079825    0.129215    0.000000
                              5.074684     0.168551   -0.174415    0.284327    0.000000
                              2.469857     0.256832   -0.253404    0.270760    0.000000
                              1.205883     0.289891   -0.174305   -0.101591    0.000000
                              0.590569     0.257154    0.045081   -0.580677    0.000000
                              0.292055     0.181726    0.345760   -0.181696    0.000000
                              0.149190     0.089986    0.263725    0.021003    0.000000
                              0.076511     0.034595    0.371715    0.723658    1.000000
    5.7 B3g   1  3d1-         1.999257     1.000000
    6.7 B3g   1  3d1-         3.454746     1.000000
    7.7 B3g   1  5g1-         1.740920     1.000000
    8.7 B3g   1  5g3-         1.740920     1.000000
    9.7 B3g   1  5g1-         4.628708     1.000000
   10.7 B3g   1  5g3-         4.628708     1.000000
    1.8 Au    1  4f2-         0.677099     1.000000
    2.8 Au    1  4f2-         2.824255     1.000000
    3.8 Au    1  4f2-         6.309190     1.000000

 NUCLEAR CHARGE:                   15
 NUMBER OF PRIMITIVE AOS:         198
 NUMBER OF SYMMETRY AOS:          164
 NUMBER OF CONTRACTIONS:           97   (  25Ag  +  13B3u +  13B2u +  10B1g +  13B1u +  10B2g +  10B3g +   3Au  )
 NUMBER OF CORE ORBITALS:           4   (   1Ag  +   1B3u +   1B2u +   0B1g +   1B1u +   0B2g +   0B3g +   0Au  )
 NUMBER OF VALENCE ORBITALS:        6   (   3Ag  +   0B3u +   0B2u +   1B1g +   0B1u +   1B2g +   1B3g +   0Au  )


 NUCLEAR REPULSION ENERGY    0.00000000

 EXTRA SYMMETRY OF AOS IN SYMMETRY 1:   1 1 1 1 1 1 1 2 3 2   3 2 3 2 3 2 3 2 3 4   5 6 4 5 6
 EXTRA SYMMETRY OF AOS IN SYMMETRY 2:   1 1 1 1 1 1 1 2 3 2   3 2 3
 EXTRA SYMMETRY OF AOS IN SYMMETRY 3:   1 1 1 1 1 1 1 2 3 2   3 2 3
 EXTRA SYMMETRY OF AOS IN SYMMETRY 4:   1 1 1 1 1 1 2 3 2 3
 EXTRA SYMMETRY OF AOS IN SYMMETRY 5:   1 1 1 1 1 1 1 2 3 2   3 2 3
 EXTRA SYMMETRY OF AOS IN SYMMETRY 6:   1 1 1 1 1 1 2 3 2 3
 EXTRA SYMMETRY OF AOS IN SYMMETRY 7:   1 1 1 1 1 1 2 3 2 3

 Eigenvalues of metric

         1 0.307E-02 0.124E-01 0.124E-01 0.135E-01 0.371E-01 0.371E-01 0.925E-01 0.925E-01
         2 0.280E-02 0.597E-01 0.213E+00 0.252E+00 0.252E+00 0.760E+00 0.926E+00 0.926E+00
         3 0.280E-02 0.597E-01 0.213E+00 0.252E+00 0.252E+00 0.760E+00 0.926E+00 0.926E+00
         4 0.124E-01 0.371E-01 0.925E-01 0.469E+00 0.469E+00 0.106E+01 0.153E+01 0.153E+01
         5 0.280E-02 0.597E-01 0.213E+00 0.252E+00 0.252E+00 0.760E+00 0.926E+00 0.926E+00
         6 0.124E-01 0.371E-01 0.925E-01 0.469E+00 0.469E+00 0.106E+01 0.153E+01 0.153E+01
         7 0.124E-01 0.371E-01 0.925E-01 0.469E+00 0.469E+00 0.106E+01 0.153E+01 0.153E+01
         8 0.252E+00 0.926E+00 0.182E+01


 Contracted 2-electron integrals neglected if value below      1.0D-12
 AO integral compression algorithm  1   Integral accuracy      1.0D-12

     14.156 MB (compressed) written to integral file ( 64.2%)


 NUMBER OF SORTED TWO-ELECTRON INTEGRALS:    1497820.     BUFFER LENGTH:  32768
 NUMBER OF SEGMENTS:   1  SEGMENT LENGTH:    1497820      RECORD LENGTH: 524288

 Memory used in sort:       2.05 MW

 SORT1 READ     2746375. AND WROTE     1138997. INTEGRALS IN      4 RECORDS. CPU TIME:     0.07 SEC, REAL TIME:     0.11 SEC
 SORT2 READ     1138997. AND WROTE     1497820. INTEGRALS IN     54 RECORDS. CPU TIME:     0.09 SEC, REAL TIME:     0.19 SEC

 FILE SIZES:   FILE 1:    33.5 MBYTE,  FILE 4:    16.8 MBYTE,   TOTAL:     50.3 MBYTE

 OPERATOR DM      FOR CENTER  0  COORDINATES:    0.000000    0.000000    0.000000
 OPERATOR EKIN    FOR CENTER  0  COORDINATES:    0.000000    0.000000    0.000000
 OPERATOR POT     FOR CENTER  0  COORDINATES:    0.000000    0.000000    0.000000


 **********************************************************************************************************************************
 DATASETS  * FILE   NREC   LENGTH (MB)   RECORD NAMES
              1      20       26.82       500      610      700      900      950      970     1000      129      960     1100   
                                          VAR    BASINP    GEOM    SYMINP    ZMAT    AOBASIS   BASIS     P2S    ABASIS      S 
                                         1400     1410     1420     1200     1210     1080     1600     1650     1300     1700   
                                         EKIN       V       ECP      H0       H01     AOSYM     SMH    MOLCAS    ERIS     OPER   

 PROGRAMS   *        TOTAL       INT
 CPU TIMES  *         1.94      1.82
 REAL TIME  *         3.63 SEC
 DISK USED  *        50.59 MB      
 **********************************************************************************************************************************


 PROGRAM * RHF-SCF (OPEN SHELL)       Authors: W. Meyer, H.-J. Werner


 NUMBER OF ELECTRONS:      10+    5-    SPACE SYMMETRY=1    SPIN SYMMETRY: Sextet  
 CONVERGENCE THRESHOLDS:    1.00E-05 (Density)    1.00E-07 (Energy)
 MAX. NUMBER OF ITERATIONS:       60
 INTERPOLATION TYPE:            DIIS
 INTERPOLATION STEPS:              2 (START)      1 (STEP)
 LEVEL SHIFTS:                 -0.60 (CLOSED) -0.30 (OPEN) 


 Singly occupied orbitals:      3.1       4.1       1.4       1.6       1.7
 
 Extra symmetries of mos in symmetry 1:   1   1   3   2

   Atom=MN basis=ECP10MDF_GUESS    lmin=0  lmax=2

 Orbital guess generated from atomic densities. Full valence occupancy:    4   1   1   1   1   1   1   0


 Molecular orbital dump at record        4202.2

 ITERATION    DDIFF          GRAD             ENERGY        2-EL.EN.            DIPOLE MOMENTS         DIIS   ORB.
    1      0.000D+00      0.000D+00      -103.05621341    145.518208    0.00000    0.00000    0.00000    0    start
    2      0.000D+00      0.337D-01      -103.21546336    155.536032    0.00000    0.00000    0.00000    1    diag,B
    3      0.140D-01      0.226D-01      -103.23938918    153.847768    0.00000    0.00000    0.00000    2    diag,B
    4      0.391D-02      0.622D-02      -103.24380918    153.690025    0.00000    0.00000    0.00000    3    diag,B
    5      0.219D-02      0.111D-02      -103.24425981    153.687590    0.00000    0.00000    0.00000    4    diag,B
    6      0.155D-02      0.284D-03      -103.24431721    153.639144    0.00000    0.00000    0.00000    5    diag,B
    7      0.843D-03      0.116D-03      -103.24432941    153.608986    0.00000    0.00000    0.00000    6    fixocc
    8      0.434D-03      0.500D-04      -103.24433213    153.600398    0.00000    0.00000    0.00000    7    diag,B
    9      0.820D-03      0.229D-04      -103.24433279    153.593634    0.00000    0.00000    0.00000    8    diag,B
   10      0.677D-03      0.265D-05      -103.24433279    153.593869    0.00000    0.00000    0.00000    9    orth
   11      0.260D-04      0.392D-06      -103.24433279    153.593822    0.00000    0.00000    0.00000    9    diag,B
   12      0.113D-05      0.462D-07      -103.24433279    153.593824    0.00000    0.00000    0.00000    0    orth

 Final alpha occupancy:   4   1   1   1   1   1   1   0
 Final beta  occupancy:   2   1   1   0   1   0   0   0

 !RHF STATE 1.1 Energy               -103.244332787701
 Nuclear energy                         0.00000000
 One-electron energy                 -180.04124487
 Two-electron energy                   76.79691209
 Virial quotient                       -1.79682420
 !RHF STATE 1.1 Dipole moment           0.00000000     0.00000000     0.00000000
 Dipole moment /Debye                   0.00000000     0.00000000     0.00000000
 

 !RHF expec          <1.1|EKIN|1.1>    57.459339978741
 
 !RHF expec           <1.1|POT|1.1>   -16.675425517156

 ELECTRON ORBITALS
 =================


   Orb  Occ    Energy  Couls-En    Coefficients

                                   1 1s      1 1s      1 1s      1 1s      1 1s      1 1s      1 1s      1 3d0     1 3d2+    1 3d0  
                                   1 3d2+    1 3d0     1 3d2+    1 3d0     1 3d2+    1 3d0     1 3d2+    1 3d0     1 3d2+    1 5g0  
                                   1 5g4+    1 5g2+    1 5g0     1 5g4+    1 5g2+ 

   1.1   2    -3.9198  -19.3101  0.999979 -0.000003  0.000000 -0.000003  0.000004  0.000030 -0.000014  0.000000  0.000000  0.000000
                                -0.000000  0.000000 -0.000000 -0.000000  0.000000  0.000000 -0.000000 -0.000000  0.000000  0.000000
                                -0.000000  0.000000 -0.000000 -0.000000 -0.000000

   2.1   2    -0.2508   -5.2937 -0.000018  1.000062  0.000012 -0.000015 -0.000073  0.000049 -0.000022  0.000000 -0.000000 -0.000000
                                 0.000000 -0.000000  0.000000 -0.000000  0.000000 -0.000000 -0.000000  0.000000  0.000000 -0.000000
                                -0.000000 -0.000000  0.000000  0.000000  0.000000

   3.1   +    -0.6292  -11.8121  0.000000  0.000000 -0.000000  0.000000 -0.000000 -0.000000  0.000000  0.023933  0.983974 -0.002975
                                -0.122304 -0.000563 -0.023146  0.000819  0.033678 -0.000025 -0.001024 -0.000003 -0.000134  0.000000
                                 0.000000 -0.000000 -0.000000 -0.000000  0.000000

   4.1   +    -0.6292  -11.8121  0.000000  0.000000 -0.000000  0.000000 -0.000000 -0.000000  0.000000  0.983974 -0.023933 -0.122304
                                 0.002975 -0.023146  0.000563  0.033678 -0.000819 -0.001024  0.000025 -0.000134  0.000003  0.000000
                                -0.000000  0.000000 -0.000000  0.000000 -0.000000

   5.1   0     0.0724   -2.3227 -0.629609 -2.812472  0.594950 -0.276714  3.272330  0.122613 -0.153653 -0.000000 -0.000000  0.000000
                                -0.000000  0.000000 -0.000000 -0.000000  0.000000  0.000000 -0.000000 -0.000000  0.000000  0.000000
                                 0.000000 -0.000000 -0.000000 -0.000000  0.000000

   6.1   0     0.2203   -2.8923 -0.000000 -0.000000  0.000000 -0.000000  0.000000  0.000000 -0.000000 -0.283762 -0.000045 -0.343470
                                -0.000054 -0.169024 -0.000027  1.399811  0.000220 -0.076097 -0.000012  0.027267  0.000004  0.000000
                                 0.000000 -0.000000 -0.000000  0.000000  0.000000

                                   1 2px     1 2px     1 2px     1 2px     1 2px     1 2px     1 2px     1 4f1+    1 4f3+    1 4f1+ 
                                   1 4f3+    1 4f1+    1 4f3+ 

   1.2   2    -2.4934  -16.3701  1.005968  0.018358  0.016501  0.002705 -0.004497 -0.006145  0.001010  0.000000  0.000000 -0.000000
                                 0.000000 -0.000000  0.000000

   2.2   0     0.0338   -3.1777 -0.139151  0.164211  0.056275 -0.041036  0.899736  0.067602 -0.010159 -0.000000 -0.000000  0.000000
                                 0.000000 -0.000000 -0.000000

   3.2   0     0.1912   -3.3502  0.494567  2.155777 -0.410425  0.240372 -2.225171 -0.366792  0.051869 -0.000000  0.000000 -0.000000
                                -0.000000  0.000000  0.000000

                                   1 2py     1 2py     1 2py     1 2py     1 2py     1 2py     1 2py     1 4f1-    1 4f3-    1 4f1- 
                                   1 4f3-    1 4f1-    1 4f3- 

   1.3   2    -2.4934  -16.3701  1.005968  0.018358  0.016501  0.002705 -0.004497 -0.006145  0.001010  0.000000 -0.000000 -0.000000
                                -0.000000 -0.000000 -0.000000

   2.3   0     0.0338   -3.1777 -0.139151  0.164211  0.056275 -0.041036  0.899736  0.067602 -0.010159 -0.000000 -0.000000  0.000000
                                -0.000000 -0.000000  0.000000

   3.3   0     0.1912   -3.3502  0.494567  2.155777 -0.410425  0.240372 -2.225171 -0.366792  0.051869 -0.000000 -0.000000 -0.000000
                                 0.000000  0.000000 -0.000000

                                   1 3d2-    1 3d2-    1 3d2-    1 3d2-    1 3d2-    1 3d2-    1 5g2-    1 5g4-    1 5g2-    1 5g4- 


   1.4   +    -0.6292  -11.8121  0.984265 -0.122341 -0.023153  0.033688 -0.001024 -0.000134 -0.000000  0.000000  0.000000 -0.000000

   2.4   0     0.2203   -2.8923 -0.283762 -0.343470 -0.169024  1.399811 -0.076097  0.027267 -0.000000 -0.000000  0.000000  0.000000

   3.4   0     0.8260   -4.2030  0.641256  2.819880  1.102510 -2.769466  0.415518 -0.118861  0.000000 -0.000000 -0.000000  0.000000

                                   1 2pz     1 2pz     1 2pz     1 2pz     1 2pz     1 2pz     1 2pz     1 4f0     1 4f2+    1 4f0  
                                   1 4f2+    1 4f0     1 4f2+ 

   1.5   2    -2.4934  -16.3701  1.005968  0.018358  0.016501  0.002705 -0.004497 -0.006145  0.001010  0.000000  0.000000 -0.000000
                                 0.000000  0.000000 -0.000000

   2.5   0     0.0338   -3.1777 -0.139151  0.164211  0.056275 -0.041036  0.899736  0.067602 -0.010159 -0.000000 -0.000000  0.000000
                                -0.000000 -0.000000  0.000000

   3.5   0     0.1912   -3.3502  0.494567  2.155777 -0.410425  0.240372 -2.225171 -0.366792  0.051869  0.000000 -0.000000 -0.000000
                                 0.000000  0.000000 -0.000000

                                   1 3d1+    1 3d1+    1 3d1+    1 3d1+    1 3d1+    1 3d1+    1 5g1+    1 5g3+    1 5g1+    1 5g3+ 


   1.6   +    -0.6292  -11.8121  0.984265 -0.122341 -0.023153  0.033688 -0.001024 -0.000134 -0.000000 -0.000000  0.000000 -0.000000

   2.6   0     0.2203   -2.8923 -0.283762 -0.343470 -0.169024  1.399811 -0.076097  0.027267 -0.000000 -0.000000  0.000000  0.000000

   3.6   0     0.8260   -4.2030  0.641256  2.819880  1.102510 -2.769466  0.415518 -0.118861  0.000000  0.000000 -0.000000 -0.000000

                                   1 3d1-    1 3d1-    1 3d1-    1 3d1-    1 3d1-    1 3d1-    1 5g1-    1 5g3-    1 5g1-    1 5g3- 


   1.7   +    -0.6292  -11.8121  0.984265 -0.122341 -0.023153  0.033688 -0.001024 -0.000134 -0.000000  0.000000  0.000000  0.000000

   2.7   0     0.2203   -2.8923 -0.283762 -0.343470 -0.169024  1.399811 -0.076097  0.027267 -0.000000  0.000000  0.000000 -0.000000

   3.7   0     0.8260   -4.2030  0.641256  2.819880  1.102510 -2.769466  0.415518 -0.118861  0.000000 -0.000000 -0.000000  0.000000

                                   1 4f2-    1 4f2-    1 4f2- 

   1.8   0     2.0628   -3.9810  0.990051  0.019695  0.024750

   2.8   0     7.8981    3.3974 -0.416021  1.121364 -0.075861

 HOMO      4.1    -0.629157 =     -17.1202eV
 LUMO      2.2     0.033772 =       0.9190eV
 LUMO-HOMO         0.662929 =      18.0392eV


 **********************************************************************************************************************************
 DATASETS  * FILE   NREC   LENGTH (MB)   RECORD NAMES
              1      20       26.82       500      610      700      900      950      970     1000      129      960     1100   
                                          VAR    BASINP    GEOM    SYMINP    ZMAT    AOBASIS   BASIS     P2S    ABASIS      S 
                                         1400     1410     1420     1200     1210     1080     1600     1650     1300     1700   
                                         EKIN       V       ECP      H0       H01     AOSYM     SMH    MOLCAS    ERIS     OPER   

              2       4        2.81       700     1000      520     4202   
                                         GEOM     BASIS   MCVARS     RHF  

 PROGRAMS   *        TOTAL       RHF       INT
 CPU TIMES  *         2.07      0.13      1.82
 REAL TIME  *         3.97 SEC
 DISK USED  *        50.59 MB      
 **********************************************************************************************************************************


 PROGRAM * POP (Mulliken population analysis)

 
 Density matrix read from record         4202.2  Type=RHF/CHARGE (state 1.1)
 
 Population analysis by basis function type

 Unique atom        s        p        d        f        g    Total    Charge
   1  MN      4.00000  6.00000  5.00000  0.00000  0.00000 15.00000  - 0.00000


 **********************************************************************************************************************************
 DATASETS  * FILE   NREC   LENGTH (MB)   RECORD NAMES
              1      20       26.82       500      610      700      900      950      970     1000      129      960     1100   
                                          VAR    BASINP    GEOM    SYMINP    ZMAT    AOBASIS   BASIS     P2S    ABASIS      S 
                                         1400     1410     1420     1200     1210     1080     1600     1650     1300     1700   
                                         EKIN       V       ECP      H0       H01     AOSYM     SMH    MOLCAS    ERIS     OPER   

              2       4        2.81       700     1000      520     4202   
                                         GEOM     BASIS   MCVARS     RHF  

 PROGRAMS   *        TOTAL       POP       RHF       INT
 CPU TIMES  *         2.07      0.00      0.13      1.82
 REAL TIME  *         4.00 SEC
 DISK USED  *        50.59 MB      
 **********************************************************************************************************************************


 PROGRAM * MULTI (Direct Multiconfiguration SCF)       Authors: P.J. Knowles, H.-J. Werner (1984)     S.T. Elbert (1988)


 Number of closed-shell orbitals:   5 (   2   1   1   0   1   0   0   0 )
 Number of active  orbitals:        5 (   2   0   0   1   0   1   1   0 )
 Number of external orbitals:      87 (  21  12  12   9  12   9   9   3 )

 State symmetry 1

 Number of electrons:     5    Spin symmetry=Sextet    Space symmetry=1
 Number of states:        1
 Number of CSFs:          1   (1 determinants, 1 intermediate states)

 Molecular orbitals read from record     4202.2  Type=RHF/CANONICAL (state 1.1)
 *** IN SYMMETRY 1 ORBITAL  3 SYMMETRY CONTAMINATION OF 0.237D-01 HAS BEEN REMOVED
 *** IN SYMMETRY 1 ORBITAL  4 SYMMETRY CONTAMINATION OF 0.237D-01 HAS BEEN REMOVED

 EXTRA SYMMETRY OF MOS IN SYMMETRY 1:   1 1 3 2 1 2 3 1 2 3   1 2 3 5 6 4 1 2 3 6   4 5 2 3 1
 EXTRA SYMMETRY OF MOS IN SYMMETRY 2:   1 1 1 1 3 2 1 2 3 1   2 3 1
 EXTRA SYMMETRY OF MOS IN SYMMETRY 3:   1 1 1 1 3 2 1 2 3 1   2 3 1
 EXTRA SYMMETRY OF MOS IN SYMMETRY 4:   1 1 1 1 3 2 1 2 3 1
 EXTRA SYMMETRY OF MOS IN SYMMETRY 5:   1 1 1 1 2 3 1 3 2 1   2 3 1
 EXTRA SYMMETRY OF MOS IN SYMMETRY 6:   1 1 1 1 3 2 1 2 3 1
 EXTRA SYMMETRY OF MOS IN SYMMETRY 7:   1 1 1 1 3 2 1 2 3 1

 Wavefunction dump at record             5202.2

 Convergence thresholds  0.10E-01 (gradient)  0.10E-05 (energy)  0.10E-02 (step length)

 Number of orbital rotations:      151   (     4 Core/Active     78 Core/Virtual   0 Active/Active     69 Active/Virtual)
 Total number of variables:        152


 ITER. MIC  NCI  NEG     ENERGY(VAR)     ENERGY(PROJ)   ENERGY CHANGE     GRAD(0)  GRAD(ORB)   GRAD(CI)     STEP       TIME

   1   23    4    0    -103.24433279    -103.24433279   -0.00000000    0.00000034 0.00000000 0.00000000  0.33D-06      0.04

 ** WVFN ****  CONVERGENCE REACHED, FINAL GRADIENT:  0.13D-12


 First order charge density matrix for state 1.1 saved on record  5202.2 (density set 1)

 Results for state 1.1
 =====================

 !MCSCF STATE 1.1 Energy             -103.244332787701
 Nuclear energy                         0.00000000
 Kinetic energy                        57.45933930
 One electron energy                 -180.04124493
 Two electron energy                   76.79691214
 Virial ratio                           2.79682422

 !MCSCF STATE 1.1 Dipole moment         0.00000000     0.00000000     0.00000000
 Dipole moment /Debye                   0.00000000     0.00000000     0.00000000

 !MCSCF expec        <1.1|EKIN|1.1>    57.459339297928

 !MCSCF expec         <1.1|POT|1.1>   -16.675425486898


 NATURAL ORBITALS
 ================

   Orb     Occ        Energy       Coefficients

                                   1 1s      1 1s      1 1s      1 1s      1 1s      1 1s      1 1s      1 3d0     1 3d2+    1 3d0  
                                   1 3d2+    1 3d0     1 3d2+    1 3d0     1 3d2+    1 3d0     1 3d2+    1 3d0     1 3d2+    1 5g0  
                                   1 5g4+    1 5g2+    1 5g0     1 5g4+    1 5g2+ 

   1.1  2.00000    -3.919795     0.999980 -0.000003  0.000000 -0.000003  0.000004  0.000030 -0.000014  0.000000  0.000000  0.000000
                                 0.000000  0.000000  0.000000  0.000000  0.000000  0.000000  0.000000  0.000000  0.000000  0.000000
                                 0.000000  0.000000  0.000000  0.000000  0.000000

   2.1  2.00000    -0.250792    -0.000018  1.000062  0.000012 -0.000015 -0.000073  0.000049 -0.000022  0.000000  0.000000  0.000000
                                 0.000000  0.000000  0.000000  0.000000  0.000000  0.000000  0.000000  0.000000  0.000000  0.000000
                                 0.000000  0.000000  0.000000  0.000000  0.000000

   3.1  1.00000    -0.133544     0.000000  0.000000  0.000000  0.000000  0.000000  0.000000  0.000000  0.984266  0.000000 -0.122340
                                 0.000000 -0.023153  0.000000  0.033688  0.000000 -0.001024  0.000000 -0.000134  0.000000  0.000000
                                 0.000000  0.000000  0.000000  0.000000  0.000000

   4.1  1.00000    -0.133544     0.000000  0.000000  0.000000  0.000000  0.000000  0.000000  0.000000  0.000000  0.984266  0.000000
                                -0.122340  0.000000 -0.023153  0.000000  0.033688  0.000000 -0.001024  0.000000 -0.000134  0.000000
                                 0.000000  0.000000  0.000000  0.000000  0.000000

                                   1 2px     1 2px     1 2px     1 2px     1 2px     1 2px     1 2px     1 4f1+    1 4f3+    1 4f1+ 
                                   1 4f3+    1 4f1+    1 4f3+ 

   1.2  2.00000    -2.493410     1.005968  0.018358  0.016501  0.002705 -0.004497 -0.006145  0.001010  0.000000  0.000000  0.000000
                                 0.000000  0.000000  0.000000

                                   1 2py     1 2py     1 2py     1 2py     1 2py     1 2py     1 2py     1 4f1-    1 4f3-    1 4f1- 
                                   1 4f3-    1 4f1-    1 4f3- 

   1.3  2.00000    -2.493410     1.005968  0.018358  0.016501  0.002705 -0.004497 -0.006145  0.001010  0.000000  0.000000  0.000000
                                 0.000000  0.000000  0.000000

                                   1 3d2-    1 3d2-    1 3d2-    1 3d2-    1 3d2-    1 3d2-    1 5g2-    1 5g4-    1 5g2-    1 5g4- 


   1.4  1.00000    -0.133544     0.984266 -0.122340 -0.023153  0.033688 -0.001024 -0.000134  0.000000  0.000000  0.000000  0.000000

                                   1 2pz     1 2pz     1 2pz     1 2pz     1 2pz     1 2pz     1 2pz     1 4f0     1 4f2+    1 4f0  
                                   1 4f2+    1 4f0     1 4f2+ 

   1.5  2.00000    -2.493410     1.005968  0.018358  0.016501  0.002705 -0.004497 -0.006145  0.001010  0.000000  0.000000  0.000000
                                 0.000000  0.000000  0.000000

                                   1 3d1+    1 3d1+    1 3d1+    1 3d1+    1 3d1+    1 3d1+    1 5g1+    1 5g3+    1 5g1+    1 5g3+ 


   1.6  1.00000    -0.133544     0.984266 -0.122340 -0.023153  0.033688 -0.001024 -0.000134  0.000000  0.000000  0.000000  0.000000

                                   1 3d1-    1 3d1-    1 3d1-    1 3d1-    1 3d1-    1 3d1-    1 5g1-    1 5g3-    1 5g1-    1 5g3- 


   1.7  1.00000    -0.133544     0.984266 -0.122340 -0.023153  0.033688 -0.001024 -0.000134  0.000000  0.000000  0.000000  0.000000
 

 EXTRA SYMMETRY OF MOS IN SYMMETRY 1:   1 1 2 3 1 2 3 1 2 3   1 2 3 6 4 5 1 2 3 6   4 5 2 3 1
 EXTRA SYMMETRY OF MOS IN SYMMETRY 2:   1 1 1 1 3 2 1 3 2 1   2 3 1
 EXTRA SYMMETRY OF MOS IN SYMMETRY 3:   1 1 1 1 3 2 1 3 2 1   2 3 1
 EXTRA SYMMETRY OF MOS IN SYMMETRY 4:   1 1 1 1 2 3 1 3 2 1
 EXTRA SYMMETRY OF MOS IN SYMMETRY 6:   1 1 1 1 2 3 1 3 2 1
 EXTRA SYMMETRY OF MOS IN SYMMETRY 7:   1 1 1 1 2 3 1 3 2 1

 Natural orbital dump at molpro section  5202.2    (Orbital set 2)


 CI vector
 =========

 aa a a a          1.0000000

 TOTAL ENERGIES                      -103.24433279



 **********************************************************************************************************************************
 DATASETS  * FILE   NREC   LENGTH (MB)   RECORD NAMES
              1      21       27.68       500      610      700      900      950      970     1000      129      960     1100   
                                          VAR    BASINP    GEOM    SYMINP    ZMAT    AOBASIS   BASIS     P2S    ABASIS      S 
                                         1400     1410     1420     1200     1210     1080     1600     1650     1300     1700   
                                         EKIN       V       ECP      H0       H01     AOSYM     SMH    MOLCAS    ERIS     OPER   
                                         1380   
                                         JKOP   

              2       5        5.35       700     1000      520     4202     5202   
                                         GEOM     BASIS   MCVARS     RHF     MCSCF   

 PROGRAMS   *        TOTAL     MULTI       POP       RHF       INT
 CPU TIMES  *         2.16      0.08      0.00      0.13      1.82
 REAL TIME  *         4.40 SEC
 DISK USED  *        50.59 MB      
 **********************************************************************************************************************************


 PROGRAM * RHF-SCF (OPEN SHELL)       Authors: W. Meyer, H.-J. Werner


 NUMBER OF ELECTRONS:      10+    5-    SPACE SYMMETRY=1    SPIN SYMMETRY: Sextet  
 CONVERGENCE THRESHOLDS:    1.00E-05 (Density)    1.00E-07 (Energy)
 MAX. NUMBER OF ITERATIONS:        0
 INTERPOLATION TYPE:            DIIS
 INTERPOLATION STEPS:              2 (START)      1 (STEP)
 LEVEL SHIFTS:                 -0.60 (CLOSED) -0.30 (OPEN) 


 Singly occupied orbitals:      3.1       4.1       1.4       1.6       1.7
 Molecular orbitals read from record     5202.2  Type=MCSCF/NATURAL (state 1.1)

 Molecular orbital dump at record        2101.2

 ITERATION    DDIFF          GRAD             ENERGY        2-EL.EN.            DIPOLE MOMENTS         DIIS   ORB.
    1      0.000D+00      0.000D+00      -103.24433279    153.593824    0.00000    0.00000    0.00000    0    start

 Final alpha occupancy:   4   1   1   1   1   1   1   0
 Final beta  occupancy:   2   1   1   0   1   0   0   0

 !RHF STATE 1.1 Energy               -103.244332787701
 Nuclear energy                         0.00000000
 One-electron energy                 -180.04124493
 Two-electron energy                   76.79691214
 Virial quotient                       -1.79682422
 !RHF STATE 1.1 Dipole moment           0.00000000     0.00000000     0.00000000
 Dipole moment /Debye                   0.00000000     0.00000000     0.00000000
 

 !RHF expec          <1.1|EKIN|1.1>    57.459339297928
 
 !RHF expec           <1.1|POT|1.1>   -16.675425486898

 ELECTRON ORBITALS
 =================


   Orb  Occ    Energy  Couls-En    Coefficients

                                   1 1s      1 1s      1 1s      1 1s      1 1s      1 1s      1 1s      1 3d0     1 3d2+    1 3d0  
                                   1 3d2+    1 3d0     1 3d2+    1 3d0     1 3d2+    1 3d0     1 3d2+    1 3d0     1 3d2+    1 5g0  
                                   1 5g4+    1 5g2+    1 5g0     1 5g4+    1 5g2+ 

   1.1   2    -3.9198  -19.3101  0.999980 -0.000003  0.000000 -0.000003  0.000004  0.000030 -0.000014  0.000000  0.000000  0.000000
                                 0.000000  0.000000  0.000000  0.000000  0.000000  0.000000  0.000000  0.000000  0.000000  0.000000
                                 0.000000  0.000000  0.000000  0.000000  0.000000

   2.1   2    -0.2508   -5.2937 -0.000018  1.000062  0.000012 -0.000015 -0.000073  0.000049 -0.000022  0.000000  0.000000  0.000000
                                 0.000000  0.000000  0.000000  0.000000  0.000000  0.000000  0.000000  0.000000  0.000000  0.000000
                                 0.000000  0.000000  0.000000  0.000000  0.000000

   3.1   +    -0.1335  -11.3165  0.000000  0.000000  0.000000  0.000000  0.000000  0.000000  0.000000  0.984266  0.000000 -0.122340
                                 0.000000 -0.023153  0.000000  0.033688  0.000000 -0.001024  0.000000 -0.000134  0.000000  0.000000
                                 0.000000  0.000000  0.000000  0.000000  0.000000

   4.1   +    -0.1335  -11.3165  0.000000  0.000000  0.000000  0.000000  0.000000  0.000000  0.000000  0.000000  0.984266  0.000000
                                -0.122340  0.000000 -0.023153  0.000000  0.033688  0.000000 -0.001024  0.000000 -0.000134  0.000000
                                 0.000000  0.000000  0.000000  0.000000  0.000000

                                   1 2px     1 2px     1 2px     1 2px     1 2px     1 2px     1 2px     1 4f1+    1 4f3+    1 4f1+ 
                                   1 4f3+    1 4f1+    1 4f3+ 

   1.2   2    -2.4934  -16.3701  1.005968  0.018358  0.016501  0.002705 -0.004497 -0.006145  0.001010  0.000000  0.000000  0.000000
                                 0.000000  0.000000  0.000000

                                   1 2py     1 2py     1 2py     1 2py     1 2py     1 2py     1 2py     1 4f1-    1 4f3-    1 4f1- 
                                   1 4f3-    1 4f1-    1 4f3- 

   1.3   2    -2.4934  -16.3701  1.005968  0.018358  0.016501  0.002705 -0.004497 -0.006145  0.001010  0.000000  0.000000  0.000000
                                 0.000000  0.000000  0.000000

                                   1 3d2-    1 3d2-    1 3d2-    1 3d2-    1 3d2-    1 3d2-    1 5g2-    1 5g4-    1 5g2-    1 5g4- 


   1.4   +    -0.1335  -11.3165  0.984266 -0.122340 -0.023153  0.033688 -0.001024 -0.000134  0.000000  0.000000  0.000000  0.000000

                                   1 2pz     1 2pz     1 2pz     1 2pz     1 2pz     1 2pz     1 2pz     1 4f0     1 4f2+    1 4f0  
                                   1 4f2+    1 4f0     1 4f2+ 

   1.5   2    -2.4934  -16.3701  1.005968  0.018358  0.016501  0.002705 -0.004497 -0.006145  0.001010  0.000000  0.000000  0.000000
                                 0.000000  0.000000  0.000000

                                   1 3d1+    1 3d1+    1 3d1+    1 3d1+    1 3d1+    1 3d1+    1 5g1+    1 5g3+    1 5g1+    1 5g3+ 


   1.6   +    -0.1335  -11.3165  0.984266 -0.122340 -0.023153  0.033688 -0.001024 -0.000134  0.000000  0.000000  0.000000  0.000000

                                   1 3d1-    1 3d1-    1 3d1-    1 3d1-    1 3d1-    1 3d1-    1 5g1-    1 5g3-    1 5g1-    1 5g3- 


   1.7   +    -0.1335  -11.3165  0.984266 -0.122340 -0.023153  0.033688 -0.001024 -0.000134  0.000000  0.000000  0.000000  0.000000

 HOMO      4.1    -0.133544 =      -3.6339eV
 LUMO      2.2     0.038120 =       1.0373eV
 LUMO-HOMO         0.171665 =       4.6712eV


 **********************************************************************************************************************************
 DATASETS  * FILE   NREC   LENGTH (MB)   RECORD NAMES
              1      21       27.68       500      610      700      900      950      970     1000      129      960     1100   
                                          VAR    BASINP    GEOM    SYMINP    ZMAT    AOBASIS   BASIS     P2S    ABASIS      S 
                                         1400     1410     1420     1200     1210     1080     1600     1650     1300     1700   
                                         EKIN       V       ECP      H0       H01     AOSYM     SMH    MOLCAS    ERIS     OPER   
                                         1380   
                                         JKOP   

              2       6        7.89       700     1000      520     4202     5202     2101   
                                         GEOM     BASIS   MCVARS     RHF     MCSCF     RHF  

 PROGRAMS   *        TOTAL       RHF     MULTI       POP       RHF       INT
 CPU TIMES  *         2.20      0.03      0.08      0.00      0.13      1.82
 REAL TIME  *         4.54 SEC
 DISK USED  *        50.59 MB      
 **********************************************************************************************************************************
 SETTING SCF(I)         =      -103.24433279  AU                              
 SETTING _CC_NORM_MAX   =         2.00000000                                  


 PROGRAM * CCSD (Unrestricted open-shell coupled cluster)     Authors: C. Hampel, H.-J. Werner, 1991, M. Deegan, P.J. Knowles, 1992


 Convergence thresholds:  THRVAR = 1.00D-08  THRDEN = 1.00D-06

 CCSD(T)     terms to be evaluated (factor= 1.000)


 Number of closed-shell orbitals:   5 (   2   1   1   0   1   0   0   0 )
 Number of active  orbitals:        5 (   2   0   0   1   0   1   1   0 )
 Number of external orbitals:      87 (  21  12  12   9  12   9   9   3 )

 Memory could be reduced to 2.18 Mwords without degradation in triples

 Number of N-1 electron functions:              15
 Number of N-2 electron functions:             105
 Number of singly external CSFs:               240
 Number of doubly external CSFs:             84216
 Total number of CSFs:                       84456

 Molecular orbitals read from record     2101.2  Type=RHF/CANONICAL (state 1.1)

 Integral transformation finished. Total CPU:   0.08 sec, npass=  1  Memory used:   0.46 MW

 Starting RMP2 calculation

 ITER.      SQ.NORM     CORR.ENERGY   TOTAL ENERGY   ENERGY CHANGE        DEN1      VAR(S)    VAR(P)  DIIS     TIME
   1      1.09405687    -0.55519983  -103.79953262    -0.55519983    -0.00158353  0.71D-04  0.97D-03  1  1     0.10
   2      1.09680723    -0.55687816  -103.80121095    -0.00167833    -0.00003176  0.40D-05  0.30D-04  2  2     0.11
   3      1.09733288    -0.55706533  -103.80139812    -0.00018716    -0.00000055  0.16D-06  0.46D-06  3  3     0.12
   4      1.09740047    -0.55708448  -103.80141727    -0.00001915    -0.00000001  0.35D-08  0.28D-08  4  4     0.12
   5      1.09740200    -0.55708445  -103.80141723     0.00000003    -0.00000000  0.74D-10  0.34D-10  5  5     0.13

 Norm of t1 vector:      0.05059662      S-energy:    -0.00269375      T1 diagnostic:  0.00027108
 Norm of t2 vector:      0.30796425      P-energy:    -0.55439070
                                         Alpha-Beta:  -0.36637680
                                         Alpha-Alpha: -0.14389718
                                         Beta-Beta:   -0.04411673

 Spin contamination <S**2-Sz**2-Sz>     0.01690504
  Reference energy                   -103.244332787701
  RHF-RMP2 correlation energy          -0.557084447186
 !RHF-RMP2 energy                    -103.801417234887

 Starting UCCSD calculation

 ITER.      SQ.NORM     CORR.ENERGY   TOTAL ENERGY   ENERGY CHANGE        DEN1      VAR(S)    VAR(P)  DIIS     TIME
   1      1.09971107    -0.54863924  -103.79297203    -0.54863924    -0.00968375  0.26D-02  0.29D-02  1  1     0.44
   2      1.11497657    -0.55783053  -103.80216331    -0.00919129    -0.00127857  0.51D-03  0.67D-03  2  2     0.76
   3      1.12613735    -0.56063159  -103.80496437    -0.00280106    -0.00019716  0.12D-03  0.91D-04  3  3     1.08
   4      1.13306951    -0.56203265  -103.80636544    -0.00140106    -0.00001274  0.40D-05  0.61D-05  4  4     1.35
   5      1.13405989    -0.56213964  -103.80647243    -0.00010699    -0.00000184  0.43D-06  0.98D-06  5  5     1.53
   6      1.13442142    -0.56219044  -103.80652323    -0.00005079    -0.00000040  0.21D-07  0.25D-06  6  6     1.70
   7      1.13443798    -0.56219038  -103.80652316     0.00000006    -0.00000012  0.11D-07  0.69D-07  6  1     1.87
   8      1.13443532    -0.56218998  -103.80652277     0.00000039    -0.00000003  0.51D-08  0.16D-07  6  2     2.05
   9      1.13442314    -0.56219006  -103.80652285    -0.00000008    -0.00000000  0.23D-09  0.28D-08  6  3     2.22

 Norm of t1 vector:      0.12627814      S-energy:    -0.00361292      T1 diagnostic:  0.01838557
                                                                       D1 diagnostic:  0.06339784
 Norm of t2 vector:      0.34420484      P-energy:    -0.55857714
                                         Alpha-Beta:  -0.38046239
                                         Alpha-Alpha: -0.13619938
                                         Beta-Beta:   -0.04191538

 Singles amplitudes (print threshold =  0.500E-01):

         I         SYM. A    A   T(IA) [Alpha-Alpha]

         2         1         3     -0.08755638
         2         1         6      0.07067532

 Doubles amplitudes (print threshold =  0.500E-01):

         I         J         SYM. A    SYM. B    A         B      T(IJ, AB) [Alpha-Beta]

         2         2         2         2         1         1     -0.07656405
         2         2         2         2         1         2     -0.05285828
         2         2         2         2         2         1     -0.05911196
         2         2         3         3         1         1     -0.07656405
         2         2         3         3         1         2     -0.05285828
         2         2         3         3         2         1     -0.05911196
         2         2         5         5         1         1     -0.07656405
         2         2         5         5         1         2     -0.05285828
         2         2         5         5         2         1     -0.05911196

 Spin contamination <S**2-Sz**2-Sz>     0.01479575

 Memory could be reduced to 2.53 Mwords without degradation in triples
 

  Correlated core orbitals:             1.1       1.2       1.3       1.5
  Orbital energies:                    -4.1375   -2.7577   -2.7577   -2.7577
 
  UCCSD core-core energy               -0.171950861555
  UCCSD core-valence energy            -0.261846812383
  UCCSD valence correlation energy     -0.128392387847
 

 RESULTS
 =======

  Reference energy                   -103.244332787701
  UCCSD singles energy                 -0.003612916855
  UCCSD pair energy                    -0.558577144931
  UCCSD correlation energy             -0.562190061786
  Triples (T) contribution             -0.016302160367
  Total correlation energy             -0.578492222153
 
  RHF-UCCSD energy                   -103.806522849487
  RHF-UCCSD[T] energy                -103.823335300551
  RHF-UCCSD-T energy                 -103.822733712199
 !RHF-UCCSD(T) energy                -103.822825009854

 Program statistics:

 Available memory in ccsd:               511999000
 Min. memory needed in ccsd:                286034
 Max. memory used in ccsd:                  387290
 Max. memory used in cckext:                335109 ( 9 integral passes)
 Max. memory used in cckint:                457713 ( 1 integral passes)



 **********************************************************************************************************************************
 DATASETS  * FILE   NREC   LENGTH (MB)   RECORD NAMES
              1      21       27.68       500      610      700      900      950      970     1000      129      960     1100   
                                          VAR    BASINP    GEOM    SYMINP    ZMAT    AOBASIS   BASIS     P2S    ABASIS      S 
                                         1400     1410     1420     1200     1210     1080     1600     1650     1300     1700   
                                         EKIN       V       ECP      H0       H01     AOSYM     SMH    MOLCAS    ERIS     OPER   
                                         1380   
                                         JKOP   

              2       6        7.89       700     1000      520     4202     5202     2101   
                                         GEOM     BASIS   MCVARS     RHF     MCSCF     RHF  

 PROGRAMS   *        TOTAL  UCCSD(T)       RHF     MULTI       POP       RHF       INT
 CPU TIMES  *         6.25      4.04      0.03      0.08      0.00      0.13      1.82
 REAL TIME  *        10.11 SEC
 DISK USED  *        77.25 MB      
 **********************************************************************************************************************************
 SETTING POSTHF(I)      =      -103.82282501  AU                              
                                                                                                                                                                                                                                                                

         SCF            POSTHF       EKIN           POT
    -103.2443328   -103.8228250   57.45933930   -16.67542549
                                                  

 UCCSD(T)/USERDEF energy=   -103.822825009854

        UCCSD(T)        RHF-SCF         MULTI           RHF-SCF 
   -103.82282501   -103.24433279   -103.24433279   -103.24433279
 **********************************************************************************************************************************
 Variable memory released
