
 Primary working directories    : /global/cscratch1/sd/aannabe
 Secondary working directories  : /global/cscratch1/sd/aannabe
 Wavefunction directory         : /global/homes/a/aannabe/wfu/
 Main file repository           : /global/cscratch1/sd/aannabe/

 SHA1      : 19cd028119e0e09f93f0674bd8af7968d9b3eff6
 NAME      : 2015.1.36
 ARCHNAME  : linux/x86_64
 FC        : /opt/cray/pe/craype/2.5.14/bin/ftn
 BLASLIB   : -L/opt/intel/compilers_and_libraries_2018.1.163/linux/mkl/lib/intel64 -Wl,-_start-group -lmkl_intel_ilp64 -lmkl_intel_thread -lmkl_core -Wl,-_end-group -liomp5
 id        : lbl

 Nodes     nprocs
 nid00495     1

 Using customized tuning parameters: mindgm=7; mindgv=16; mindgc=1; mindgr=1; noblas=0; minvec=7
 default implementation of scratch files=df  

 ***,Na
 memory,8,g
 gthresh,twoint=1.e-12
 
 gprint,basis,orbitals
 gexpec,ekin,pot
 
 angstrom
 geometry={
 1                                                                               ! Number of atoms
 Na 0.0 0.0 0.0
 }
 
 basis={
 Including file /global/homes/a/aannabe/repos/pseudopotentiallibrary/recipes/Na/ccECP_He_core/Na.ccECP.molpro
 Including file /global/homes/a/aannabe/repos/pseudopotentiallibrary/recipes/Na/ccECP_He_core/cc-pCVTZ.molpro
 }
 
 {hf
 wf,9,1,1
 occ,2,1,1,0,1,0,0,0
 open,2.1
 }
 scf(i)=energy
 
 _CC_NORM_MAX=2.0
  !NOTE: Perturbative MRCC works only with UHF reference. So, here we will trick MRCC by doing zero UHF iteration right after ROHF.
 
 {uhf
 wf,9,1,1
 occ,2,1,1,0,1,0,0,0
 open,2.1
 maxit,0
 }
 scf(i)=energy
 
 {mrcc,method=CCSDT(Q),dir=Na                                                    !,restart=1
 orbital,ignore_error=1                                                          !Ignore the fact that UHF WF is not converged
 maxit,100
 core
 }
 posthf(i)=energy
 
 table,scf,posthf,ekin,pot
 save,3.csv,new
 
 

 Variables initialized (889), CPU time= 0.01 sec
 Commands  initialized (702), CPU time= 0.00 sec, 572 directives.
 Default parameters read. Elapsed time= 0.14 sec

 Checking input...
 Passed
1


                                         ***  PROGRAM SYSTEM MOLPRO  ***
                                       Copyright, TTI GmbH Stuttgart, 2015
                                    Version 2015.1 linked Dec 29 2018 15:55:43


 **********************************************************************************************************************************
 LABEL *   Na                                                                            
  64 bit serial version                                                                  DATE: 04-Jan-19          TIME: 07:24:32  
 **********************************************************************************************************************************

 SHA1:             19cd028119e0e09f93f0674bd8af7968d9b3eff6
 **********************************************************************************************************************************

 THRESHOLDS:

 ZERO    =  1.00D-12  ONEINT  =  1.00D-12  TWOINT  =  1.00D-12  PREFAC  =  1.00D-14  LOCALI  =  1.00D-09  EORDER  =  1.00D-04
 ENERGY  =  0.00D+00  ETEST   =  0.00D+00  EDENS   =  0.00D+00  THRDEDEF=  1.00D-06  GRADIENT=  1.00D-02  STEP    =  1.00D-03
 ORBITAL =  1.00D-05  CIVEC   =  1.00D-05  COEFF   =  1.00D-04  PRINTCI =  5.00D-02  PUNCHCI =  9.90D+01  OPTGRAD =  3.00D-04
 OPTENERG=  1.00D-06  OPTSTEP =  3.00D-04  THRGRAD =  1.00D-10  COMPRESS=  1.00D-11  VARMIN  =  1.00D-07  VARMAX  =  1.00D-03
 THRDOUB =  0.00D+00  THRDIV  =  1.00D-05  THRRED  =  1.00D-07  THRPSP  =  1.00D+00  THRDC   =  1.00D-10  THRCS   =  1.00D-10
 THRNRM  =  1.00D-08  THREQ   =  0.00D+00  THRDE   =  1.00D+00  THRREF  =  1.00D-05  SPARFAC =  1.00D+00  THRDLP  =  1.00D-07
 THRDIA  =  1.00D-10  THRDLS  =  1.00D-07  THRGPS  =  0.00D+00  THRKEX  =  0.00D+00  THRDIS  =  2.00D-01  THRVAR  =  1.00D-10
 THRLOC  =  1.00D-06  THRGAP  =  1.00D-06  THRLOCT = -1.00D+00  THRGAPT = -1.00D+00  THRORB  =  1.00D-06  THRMLTP =  0.00D+00
 THRCPQCI=  1.00D-10  KEXTA   =  0.00D+00  THRCOARS=  0.00D+00  SYMTOL  =  1.00D-06  GRADTOL =  1.00D-06  THROVL  =  1.00D-08
 THRORTH =  1.00D-08  GRID    =  1.00D-06  GRIDMAX =  1.00D-03  DTMAX   =  0.00D+00  THROCCDE=  1.00D-01  THROCCDE=  1.00D-01



 ZUNIT=ANG
 

Geometry recognized as XYZ


 Variable memory set to 8000000000 words,  buffer space   230000 words

 SETTING BASIS          =    USERDEF


 Recomputing integrals since basis changed


 Using spherical harmonics



 PROGRAM * SEWARD (Integral evaluation for generally contracted gaussian basis sets)     Author: Roland Lindh, 1990

 Geometry written to block  1 of record 700

 Orientation using atomic masses  
 Molecule type: Atom
 Symmetry elements: X,Y,Z
 Rotational constants:       0.0000000      0.0000000      0.0000000 GHz  (calculated with average atomic masses)

 Point group  D2h 



 ATOMIC COORDINATES

 NR  ATOM    CHARGE       X              Y              Z

   1  NA      1.00    0.000000000    0.000000000    0.000000000


          NA  CORE POTENTIAL

          d POTENTIAL

 POWERS             1              3              2              1              1
 EXPONENTIALS   8.997115       8.958240       8.691287       0.000000       0.000000    
 COEFFICIENTS   9.000000       80.97404      -57.11799       1.000000      -9.000000    

          s - d POTENTIAL

 POWERS             2              2
 EXPONENTIALS   61.00436       14.82952    
 COEFFICIENTS   25.19460       60.93358    

          p - d POTENTIAL

 POWERS             2
 EXPONENTIALS   1.000000    
 COEFFICIENTS   0.000000    


 BASIS DATA

   Nr Sym  Nuc  Type         Exponents   Contraction coefficients

    1.1 Ag    1  1s          50.364926    -0.001449    0.000212
    2.1 Ag                   24.480199    -0.000590    0.000379
                             11.898760    -0.118818    0.019582
                              5.783470    -0.010856    0.000623
                              2.811093     0.250783   -0.045781
                              1.366350     0.447276   -0.088728
                              0.664123     0.347254   -0.112952
                              0.322801     0.080652   -0.108396
                              0.156900     0.001208    0.009901
                              0.076262     0.000409    0.355418
                              0.037068     0.000112    0.561451
                              0.018017     0.000072    0.198998
    3.1 Ag    1  1s           4.763088     1.000000
    4.1 Ag    1  1s           1.276533     1.000000
    5.1 Ag    1  1s           0.521238     1.000000
    6.1 Ag    1  1s           0.067262     1.000000
    7.1 Ag    1  3d0          7.242860     1.000000
    8.1 Ag    1  3d2+         7.242860     1.000000
    9.1 Ag    1  3d0          2.327760     1.000000
   10.1 Ag    1  3d2+         2.327760     1.000000
   11.1 Ag    1  3d0          0.669522     1.000000
   12.1 Ag    1  3d2+         0.669522     1.000000
   13.1 Ag    1  3d0          0.089604     1.000000
   14.1 Ag    1  3d2+         0.089604     1.000000
    1.2 B3u   1  2px         77.769943     0.000054   -0.000656
    2.2 B3u                  42.060816    -0.000016    0.003137
                             22.748020     0.012571   -0.011004
                             12.302957     0.079601    0.009376
                              6.653887     0.140442   -0.066479
                              3.598664     0.212141    0.058959
                              1.946289     0.261799   -0.221050
                              1.052624     0.255820    0.303491
                              0.569297     0.180359   -0.671705
                              0.307897     0.072165    1.064360
                              0.166522     0.010663   -1.530489
                              0.090061     0.001538    1.843167
    3.2 B3u   1  2px          1.820610     1.000000
    4.2 B3u   1  2px          0.624998     1.000000
    5.2 B3u   1  2px          0.083396     1.000000
    6.2 B3u   1  2px          0.036236     1.000000
    7.2 B3u   1  4f1+         3.438754     1.000000
    8.2 B3u   1  4f3+         3.438754     1.000000
    9.2 B3u   1  4f1+         0.134692     1.000000
   10.2 B3u   1  4f3+         0.134692     1.000000
    1.3 B2u   1  2py         77.769943     0.000054   -0.000656
    2.3 B2u                  42.060816    -0.000016    0.003137
                             22.748020     0.012571   -0.011004
                             12.302957     0.079601    0.009376
                              6.653887     0.140442   -0.066479
                              3.598664     0.212141    0.058959
                              1.946289     0.261799   -0.221050
                              1.052624     0.255820    0.303491
                              0.569297     0.180359   -0.671705
                              0.307897     0.072165    1.064360
                              0.166522     0.010663   -1.530489
                              0.090061     0.001538    1.843167
    3.3 B2u   1  2py          1.820610     1.000000
    4.3 B2u   1  2py          0.624998     1.000000
    5.3 B2u   1  2py          0.083396     1.000000
    6.3 B2u   1  2py          0.036236     1.000000
    7.3 B2u   1  4f1-         3.438754     1.000000
    8.3 B2u   1  4f3-         3.438754     1.000000
    9.3 B2u   1  4f1-         0.134692     1.000000
   10.3 B2u   1  4f3-         0.134692     1.000000
    1.4 B1g   1  3d2-         7.242860     1.000000
    2.4 B1g   1  3d2-         2.327760     1.000000
    3.4 B1g   1  3d2-         0.669522     1.000000
    4.4 B1g   1  3d2-         0.089604     1.000000
    1.5 B1u   1  2pz         77.769943     0.000054   -0.000656
    2.5 B1u                  42.060816    -0.000016    0.003137
                             22.748020     0.012571   -0.011004
                             12.302957     0.079601    0.009376
                              6.653887     0.140442   -0.066479
                              3.598664     0.212141    0.058959
                              1.946289     0.261799   -0.221050
                              1.052624     0.255820    0.303491
                              0.569297     0.180359   -0.671705
                              0.307897     0.072165    1.064360
                              0.166522     0.010663   -1.530489
                              0.090061     0.001538    1.843167
    3.5 B1u   1  2pz          1.820610     1.000000
    4.5 B1u   1  2pz          0.624998     1.000000
    5.5 B1u   1  2pz          0.083396     1.000000
    6.5 B1u   1  2pz          0.036236     1.000000
    7.5 B1u   1  4f0          3.438754     1.000000
    8.5 B1u   1  4f2+         3.438754     1.000000
    9.5 B1u   1  4f0          0.134692     1.000000
   10.5 B1u   1  4f2+         0.134692     1.000000
    1.6 B2g   1  3d1+         7.242860     1.000000
    2.6 B2g   1  3d1+         2.327760     1.000000
    3.6 B2g   1  3d1+         0.669522     1.000000
    4.6 B2g   1  3d1+         0.089604     1.000000
    1.7 B3g   1  3d1-         7.242860     1.000000
    2.7 B3g   1  3d1-         2.327760     1.000000
    3.7 B3g   1  3d1-         0.669522     1.000000
    4.7 B3g   1  3d1-         0.089604     1.000000
    1.8 Au    1  4f2-         3.438754     1.000000
    2.8 Au    1  4f2-         0.134692     1.000000

 NUCLEAR CHARGE:                    1
 NUMBER OF PRIMITIVE AOS:         108
 NUMBER OF SYMMETRY AOS:           98
 NUMBER OF CONTRACTIONS:           58   (  14Ag  +  10B3u +  10B2u +   4B1g +  10B1u +   4B2g +   4B3g +   2Au  )
 NUMBER OF CORE ORBITALS:           0   (   0Ag  +   0B3u +   0B2u +   0B1g +   0B1u +   0B2g +   0B3g +   0Au  )
 NUMBER OF VALENCE ORBITALS:        4   (   1Ag  +   1B3u +   1B2u +   0B1g +   1B1u +   0B2g +   0B3g +   0Au  )


 NUCLEAR REPULSION ENERGY    0.00000000

 EXTRA SYMMETRY OF AOS IN SYMMETRY 1:   1 1 1 1 1 1 2 3 2 3   2 3 2 3
 EXTRA SYMMETRY OF AOS IN SYMMETRY 2:   1 1 1 1 1 1 2 3 2 3
 EXTRA SYMMETRY OF AOS IN SYMMETRY 3:   1 1 1 1 1 1 2 3 2 3
 EXTRA SYMMETRY OF AOS IN SYMMETRY 5:   1 1 1 1 1 1 2 3 2 3

 Eigenvalues of metric

         1 0.281E-02 0.285E-01 0.740E-01 0.265E+00 0.265E+00 0.528E+00 0.765E+00 0.765E+00
         2 0.903E-02 0.400E-01 0.170E+00 0.332E+00 0.987E+00 0.987E+00 0.101E+01 0.101E+01
         3 0.903E-02 0.400E-01 0.170E+00 0.332E+00 0.987E+00 0.987E+00 0.101E+01 0.101E+01
         4 0.265E+00 0.765E+00 0.109E+01 0.188E+01
         5 0.903E-02 0.400E-01 0.170E+00 0.332E+00 0.987E+00 0.987E+00 0.101E+01 0.101E+01
         6 0.265E+00 0.765E+00 0.109E+01 0.188E+01
         7 0.265E+00 0.765E+00 0.109E+01 0.188E+01
         8 0.987E+00 0.101E+01


 Contracted 2-electron integrals neglected if value below      1.0D-12
 AO integral compression algorithm  1   Integral accuracy      1.0D-12

     2.097 MB (compressed) written to integral file ( 68.9%)


 NUMBER OF SORTED TWO-ELECTRON INTEGRALS:     203904.     BUFFER LENGTH:  32768
 NUMBER OF SEGMENTS:   1  SEGMENT LENGTH:     203904      RECORD LENGTH: 524288

 Memory used in sort:       0.76 MW

 SORT1 READ      417520. AND WROTE      167428. INTEGRALS IN      1 RECORDS. CPU TIME:     0.00 SEC, REAL TIME:     0.03 SEC
 SORT2 READ      167428. AND WROTE      203904. INTEGRALS IN      8 RECORDS. CPU TIME:     0.03 SEC, REAL TIME:     0.06 SEC

 FILE SIZES:   FILE 1:    22.1 MBYTE,  FILE 4:     4.2 MBYTE,   TOTAL:     26.3 MBYTE

 OPERATOR DM      FOR CENTER  0  COORDINATES:    0.000000    0.000000    0.000000
 OPERATOR EKIN    FOR CENTER  0  COORDINATES:    0.000000    0.000000    0.000000
 OPERATOR POT     FOR CENTER  0  COORDINATES:    0.000000    0.000000    0.000000


 **********************************************************************************************************************************
 DATASETS  * FILE   NREC   LENGTH (MB)   RECORD NAMES
              1      20       20.99       500      610      700      900      950      970     1000      129      960     1100   
                                          VAR    BASINP    GEOM    SYMINP    ZMAT    AOBASIS   BASIS     P2S    ABASIS      S 
                                         1400     1410     1420     1200     1210     1080     1600     1650     1300     1700   
                                         EKIN       V       ECP      H0       H01     AOSYM     SMH    MOLCAS    ERIS     OPER   

 PROGRAMS   *        TOTAL       INT
 CPU TIMES  *         2.62      2.51
 REAL TIME  *        22.52 SEC
 DISK USED  *        26.57 MB      
 **********************************************************************************************************************************


 PROGRAM * RHF-SCF (OPEN SHELL)       Authors: W. Meyer, H.-J. Werner


 NUMBER OF ELECTRONS:       5+    4-    SPACE SYMMETRY=1    SPIN SYMMETRY: Doublet 
 CONVERGENCE THRESHOLDS:    1.00E-05 (Density)    1.00E-07 (Energy)
 MAX. NUMBER OF ITERATIONS:       60
 INTERPOLATION TYPE:            DIIS
 INTERPOLATION STEPS:              2 (START)      1 (STEP)
 LEVEL SHIFTS:                 -0.60 (CLOSED) -0.30 (OPEN) 


 Singly occupied orbitals:      2.1

   Atom=NA basis=ECP10SDF_GUESS    lmin=0  lmax=0

 Orbital guess generated from atomic densities. Full valence occupancy:    1   0   0   0   0   0   0   0


 Molecular orbital dump at record        2100.2

 ITERATION    DDIFF          GRAD             ENERGY        2-EL.EN.            DIPOLE MOMENTS         DIIS   ORB.
    1      0.000D+00      0.000D+00       -40.26749748     95.169260    0.00000    0.00000    0.00000    0    start
    2      0.000D+00      0.625D+00       -46.64688018     56.074371    0.00000    0.00000    0.00000    1    diag,B
    3      0.752D+00      0.190D+00       -47.34393223     64.404952    0.00000    0.00000    0.00000    2    diag,B
    4      0.136D+00      0.167D-01       -47.35515083     64.629787    0.00000    0.00000    0.00000    3    diag,B
    5      0.375D-01      0.405D-02       -47.35661026     64.730189    0.00000    0.00000    0.00000    4    diag,B
    6      0.210D-01      0.763D-03       -47.35693717     64.805333    0.00000    0.00000    0.00000    5    diag,B
    7      0.111D-01      0.416D-03       -47.35713654     64.885634    0.00000    0.00000    0.00000    6    fixocc
    8      0.122D-01      0.147D-03       -47.35715943     64.919577    0.00000    0.00000    0.00000    7    diag,B
    9      0.514D-02      0.139D-04       -47.35715947     64.921276    0.00000    0.00000    0.00000    8    diag,B
   10      0.214D-03      0.592D-06       -47.35715947     64.921288    0.00000    0.00000    0.00000    9    orth
   11      0.166D-05      0.117D-06       -47.35715947     64.921288    0.00000    0.00000    0.00000    0    orth

 Final alpha occupancy:   2   1   1   0   1   0   0   0
 Final beta  occupancy:   1   1   1   0   1   0   0   0

 !RHF STATE 1.1 Energy                -47.357159467575
 Nuclear energy                         0.00000000
 One-electron energy                  -79.81780330
 Two-electron energy                   32.46064384
 Virial quotient                       -1.29648337
 !RHF STATE 1.1 Dipole moment           0.00000000     0.00000000     0.00000000
 Dipole moment /Debye                   0.00000000     0.00000000     0.00000000
 

 !RHF expec          <1.1|EKIN|1.1>    36.527394397629
 
 !RHF expec           <1.1|POT|1.1>   -13.342642351472

 ELECTRON ORBITALS
 =================


   Orb  Occ    Energy  Couls-En    Coefficients

                                   1 1s      1 1s      1 1s      1 1s      1 1s      1 1s      1 3d0     1 3d2+    1 3d0     1 3d2+ 
                                   1 3d0     1 3d2+    1 3d0     1 3d2+ 

   1.1   2    -2.7672  -13.1809  1.000001 -0.000002 -0.000001  0.000004 -0.000005  0.000003 -0.000000 -0.000000 -0.000000 -0.000000
                                -0.000000 -0.000000 -0.000000  0.000000

   2.1   +    -0.1822   -2.6440 -0.000019  0.999970  0.000000  0.000012 -0.000006  0.000035 -0.000000  0.000000  0.000000 -0.000000
                                 0.000000 -0.000000  0.000000 -0.000000

                                   1 2px     1 2px     1 2px     1 2px     1 2px     1 2px     1 4f1+    1 4f3+    1 4f1+    1 4f3+ 


   1.2   2    -1.5300  -10.9514  0.999940 -0.000380  0.000002 -0.000009  0.000230  0.000189  0.000000  0.000000 -0.000000 -0.000000

                                   1 2py     1 2py     1 2py     1 2py     1 2py     1 2py     1 4f1-    1 4f3-    1 4f1-    1 4f3- 


   1.3   2    -1.5300  -10.9514  0.999940 -0.000380  0.000002 -0.000009  0.000230  0.000189  0.000000 -0.000000 -0.000000  0.000000

                                   1 2pz     1 2pz     1 2pz     1 2pz     1 2pz     1 2pz     1 4f0     1 4f2+    1 4f0     1 4f2+ 


   1.5   2    -1.5300  -10.9514  0.999940 -0.000380  0.000002 -0.000009  0.000230  0.000189  0.000000  0.000000  0.000000  0.000000

 HOMO      2.1    -0.182225 =      -4.9586eV
 LUMO      2.2     0.035805 =       0.9743eV
 LUMO-HOMO         0.218030 =       5.9329eV


 **********************************************************************************************************************************
 DATASETS  * FILE   NREC   LENGTH (MB)   RECORD NAMES
              1      20       20.99       500      610      700      900      950      970     1000      129      960     1100   
                                          VAR    BASINP    GEOM    SYMINP    ZMAT    AOBASIS   BASIS     P2S    ABASIS      S 
                                         1400     1410     1420     1200     1210     1080     1600     1650     1300     1700   
                                         EKIN       V       ECP      H0       H01     AOSYM     SMH    MOLCAS    ERIS     OPER   

              2       4        2.77       700     1000      520     2100   
                                         GEOM     BASIS   MCVARS     RHF  

 PROGRAMS   *        TOTAL        HF       INT
 CPU TIMES  *         2.69      0.07      2.51
 REAL TIME  *        24.21 SEC
 DISK USED  *        26.57 MB      
 **********************************************************************************************************************************
 SETTING SCF(I)         =       -47.35715947  AU                              
 SETTING _CC_NORM_MAX   =         2.00000000                                  


 PROGRAM * UHF-SCF       Authors: W. Meyer, H.-J. Werner


 NUMBER OF ELECTRONS:       5+    4-    SPACE SYMMETRY=1    SPIN SYMMETRY: Doublet 
 CONVERGENCE THRESHOLDS:    1.00E-05 (Density)    1.00E-07 (Energy)
 MAX. NUMBER OF ITERATIONS:        0
 INTERPOLATION TYPE:            DIIS
 INTERPOLATION STEPS:              2 (START)      1 (STEP)
 LEVEL SHIFTS:                  0.20 (ALPHA)   0.20 (BETA) 


 Singly occupied orbitals:      2.1
 Molecular orbitals read from record     2100.2  Type=RHF/CANONICAL (state 1.1)

 Molecular orbital dump at record        2200.2

 Initial alpha occupation   2   1   1   0   1   0   0   0
 Initial beta  occupation   1   1   1   0   1   0   0   0

 ITERATION    DDIFF          GRAD             ENERGY        2-EL.EN.            DIPOLE MOMENTS         DIIS
    1      0.000D+00      0.000D+00       -47.35715947     64.921288    0.00000    0.00000    0.00000    0
 
 Final alpha occupancy:   2   1   1   0   1   0   0   0
 Final beta  occupancy:   1   1   1   0   1   0   0   0

 !UHF STATE 1.1 Energy                -47.357159467575
 Nuclear energy                         0.00000000
 One-electron energy                  -79.81780330
 Two-electron energy                   32.46064384
 Virial quotient                       -1.29648337
 !UHF STATE 1.1 Dipole moment           0.00000000     0.00000000     0.00000000
 Dipole moment /Debye                   0.00000000     0.00000000     0.00000000
 

 !UHF expec          <1.1|EKIN|1.1>    36.527394397629
 
 !UHF expec           <1.1|POT|1.1>   -13.342642351472

 ELECTRON ORBITALS FOR POSITIVE SPIN
 ===================================


   Orb  Occ    Energy  Couls-En    Coefficients

                                   1 1s      1 1s      1 1s      1 1s      1 1s      1 1s      1 3d0     1 3d2+    1 3d0     1 3d2+ 
                                   1 3d0     1 3d2+    1 3d0     1 3d2+ 

   1.1   +    -2.7672  -13.1809  1.000001 -0.000002 -0.000001  0.000004 -0.000005  0.000003 -0.000000 -0.000000 -0.000000 -0.000000
                                -0.000000 -0.000000 -0.000000  0.000000

   2.1   +    -0.1822   -2.6440 -0.000019  0.999970  0.000000  0.000012 -0.000006  0.000035 -0.000000  0.000000  0.000000 -0.000000
                                 0.000000 -0.000000  0.000000 -0.000000

                                   1 2px     1 2px     1 2px     1 2px     1 2px     1 2px     1 4f1+    1 4f3+    1 4f1+    1 4f3+ 


   1.2   +    -1.5300  -10.9514  0.999940 -0.000380  0.000002 -0.000009  0.000230  0.000189  0.000000  0.000000 -0.000000 -0.000000

                                   1 2py     1 2py     1 2py     1 2py     1 2py     1 2py     1 4f1-    1 4f3-    1 4f1-    1 4f3- 


   1.3   +    -1.5300  -10.9514  0.999940 -0.000380  0.000002 -0.000009  0.000230  0.000189  0.000000 -0.000000 -0.000000  0.000000

                                   1 2pz     1 2pz     1 2pz     1 2pz     1 2pz     1 2pz     1 4f0     1 4f2+    1 4f0     1 4f2+ 


   1.5   +    -1.5300  -10.9514  0.999940 -0.000380  0.000002 -0.000009  0.000230  0.000189  0.000000  0.000000  0.000000  0.000000

 ELECTRON ORBITALS FOR NEGATIVE SPIN
 ===================================


   Orb  Occ    Energy  Couls-En    Coefficients

                                   1 1s      1 1s      1 1s      1 1s      1 1s      1 1s      1 3d0     1 3d2+    1 3d0     1 3d2+ 
                                   1 3d0     1 3d2+    1 3d0     1 3d2+ 

   1.1   -    -2.7672  -13.1809  1.000001 -0.000002 -0.000001  0.000004 -0.000005  0.000003 -0.000000 -0.000000 -0.000000 -0.000000
                                -0.000000 -0.000000 -0.000000  0.000000

                                   1 2px     1 2px     1 2px     1 2px     1 2px     1 2px     1 4f1+    1 4f3+    1 4f1+    1 4f3+ 


   1.2   -    -1.5300  -10.9514  0.999940 -0.000380  0.000002 -0.000009  0.000230  0.000189  0.000000  0.000000 -0.000000 -0.000000

                                   1 2py     1 2py     1 2py     1 2py     1 2py     1 2py     1 4f1-    1 4f3-    1 4f1-    1 4f3- 


   1.3   -    -1.5300  -10.9514  0.999940 -0.000380  0.000002 -0.000009  0.000230  0.000189  0.000000 -0.000000 -0.000000  0.000000

                                   1 2pz     1 2pz     1 2pz     1 2pz     1 2pz     1 2pz     1 4f0     1 4f2+    1 4f0     1 4f2+ 


   1.5   -    -1.5300  -10.9514  0.999940 -0.000380  0.000002 -0.000009  0.000230  0.000189  0.000000  0.000000  0.000000  0.000000

 HOMO      2.1    -0.182225 =      -4.9586eV
 LUMO     -2.1    -0.182225 =      -4.9586eV
 LUMO-HOMO         0.000000 =       0.0000eV

 EXPECTATION VALUE OF S**2:             0.75000000

 Occupation number threshold for canonical orbitals:  1.999000 (occupied),  0.001000 (virtual)

 Number of pseudo-canonical orbitals per symmetry:    1   1   1   0   1   0   0   0
 Number of active natural orbitals per symmetry:      1   0   0   0   0   0   0   0

 NATURAL CHARGE ORBITALS
 =======================


   Orb     Occ        Energy       Coefficients

                                   1 1s      1 1s      1 1s      1 1s      1 1s      1 1s      1 3d0     1 3d2+    1 3d0     1 3d2+ 
                                   1 3d0     1 3d2+    1 3d0     1 3d2+ 

   1.1  2.00000    -2.767236     1.000001 -0.000002 -0.000001  0.000004 -0.000005  0.000003 -0.000000 -0.000000 -0.000000 -0.000000
                                -0.000000 -0.000000 -0.000000  0.000000

   2.1  1.00000    -0.074483    -0.000019  0.999970  0.000000  0.000012 -0.000006  0.000035 -0.000000  0.000000  0.000000 -0.000000
                                 0.000000 -0.000000  0.000000 -0.000000

                                   1 2px     1 2px     1 2px     1 2px     1 2px     1 2px     1 4f1+    1 4f3+    1 4f1+    1 4f3+ 


   1.2  2.00000    -1.529970     0.999940 -0.000380  0.000002 -0.000009  0.000230  0.000189  0.000000  0.000000 -0.000000 -0.000000

                                   1 2py     1 2py     1 2py     1 2py     1 2py     1 2py     1 4f1-    1 4f3-    1 4f1-    1 4f3- 


   1.3  2.00000    -1.529970     0.999940 -0.000380  0.000002 -0.000009  0.000230  0.000189  0.000000 -0.000000 -0.000000  0.000000

                                   1 2pz     1 2pz     1 2pz     1 2pz     1 2pz     1 2pz     1 4f0     1 4f2+    1 4f0     1 4f2+ 


   1.5  2.00000    -1.529970     0.999940 -0.000380  0.000002 -0.000009  0.000230  0.000189  0.000000  0.000000  0.000000  0.000000

 Natural orbitals saved to record    2200.2 (Orbital set 3)

 Orbital spaces for UNO-CAS (Min. occupation: 0.020  Max. occupation: 1.980):

 Closed:        1   1   1   0   1   0   0   0
 Active:        1   0   0   0   0   0   0   0

 No convergence



 **********************************************************************************************************************************
 DATASETS  * FILE   NREC   LENGTH (MB)   RECORD NAMES
              1      20       20.99       500      610      700      900      950      970     1000      129      960     1100   
                                          VAR    BASINP    GEOM    SYMINP    ZMAT    AOBASIS   BASIS     P2S    ABASIS      S 
                                         1400     1410     1420     1200     1210     1080     1600     1650     1300     1700   
                                         EKIN       V       ECP      H0       H01     AOSYM     SMH    MOLCAS    ERIS     OPER   

              2       5        5.30       700     1000      520     2100     2200   
                                         GEOM     BASIS   MCVARS     RHF      UHF  

 PROGRAMS   *        TOTAL       UHF        HF       INT
 CPU TIMES  *         2.72      0.02      0.07      2.51
 REAL TIME  *        24.53 SEC
 DISK USED  *        26.57 MB      
 **********************************************************************************************************************************
 SETTING SCF(I)         =       -47.35715947  AU                              


 PROGRAM * MRCC (General Multireference Coupled Cluster)    Author: M. Kallay, 2000-2005

 ***  Initialisation ***

   0 Spin projections
 
 Molecular orbitals read from record     2200.2  Type=UHF/ALPHA (state 1.1)

 ?Warning: UHF not converged
 Molecular orbitals read from record     2200.2  Type=UHF/BETA (state 1.1)

 ?Warning: UHF not converged
 
 Frozen orbitals:              0 (  0  0  0  0  0  0  0  0)
 Active orbitals:             58 ( 14 10 10  4 10  4  4  2)
 Active electrons:             9
 Spin quantum number:          0.5

 Transformed integrals will be written to file na/mrcc_43811/fort.55

 Load integrals                2.8 sec
 Transform integrals           2.9 sec
 Storage for integrals:        1158255
 Remaining memory:           *********

 Core energy:               0.00000000
 
 MRCC Input:
     4     0     0     0     3     0     0     1     0     0     0     1     1     0     0     7     0     0   0.000     0   64000
  ex.lev,nsing,ntrip, rest,method,dens,conver,symm, diag, CS ,spatial, HF, ndoub,nacto,nactv, tol, maxex, sacc, freq,  dboc,   mem
  2  1  0  0  0  0  0  0  0  0  0  0  0  0  2  0  0  0  0  0  0  0  0  0  2  0  0  0  0  0  0  0  0  0  0  0  0  0  2  0  0  0  0  0  0  0  0  0  0  0  0  0  0  0  0  0  0  0
 MRCC Input end
 Variable memory released
 MRCC now being run, temporary output in /global/cscratch1/sd/aannabe/na/mrcc_43811/mrcc.out
 **********************************************************************
                          MRCC program system
 **********************************************************************

                              Written by
  Mihaly Kallay, Zoltan Rolik, Jozsef Csontos, Peter Nagy, Gyula Samu,
      David Mester, Jozsef Csoka, Bernat Szabo, Istvan Ladjanszki,
       Lorant Szegedy, Bence Ladoczki, Klara Petrov, Mate Farkas,
                    Pal D. Mezei, and Bence Hegely

        Department of Physical Chemistry and Materials Science
            Budapest University of Technology and Economics
                  Budapest P.O.Box 91, H-1521 Hungary

                              www.mrcc.hu

                       Release date: May 23, 2018

 ************************ 2019-01-04 07:25:16 *************************
 Executing goldstone...

 Generation of CC equations in terms of H and T...
 Generation of antisymmetrized Goldstone diagrams...
 Number of diagrams in T^1 equations:    15
 Number of diagrams in T^2 equations:    38
 Number of diagrams in T^3 equations:    49
 Number of diagrams in T^4 equations:     5
 Translation of diagrams to factorized equations...
 Optimizing intermediate calculation...
 Number of floating-point operations per iteration step:   5.6559E+10
 Probable CPU time per iteration step (hours):      0.57
 Required memory (Mbytes):    1086.5
 Number of intermediates:                                  79
 Number of intermediates to be stored:                     32
 Length of intermediate file (Mbytes):      29.1

 ************************ 2019-01-04 07:25:17 *************************
 Executing xmrcc...

 **********************************************************************
 CC(3)(4) calculation


 Allocation of1086.5 Mbytes of memory...
 Number of spinorbitals:                   116
 Number of alpha electrons:                        5
 Number of beta electrons:                         4
 Spin multiplicity:                     2
 z-component of spin:  0.5
 Spatial symmetry:                      1
 Convergence criterion:  1.0E-07
 Construction of occupation graphs...
 Number of                     0 -fold excitations:                      1
 Number of                     1 -fold excitations:                     91
 Number of                     2 -fold excitations:                  10602
 Number of                     3 -fold excitations:                 700018
 Total number of configurations:                 710712
 Calculation of coupling coefficients...
 Length of intermediate file (Mbytes):      22.5

 ======================================================================

 Spin case  1   Alpha:  0   Beta:  4
 Number of excitations:                  39733
 Spin case  2   Alpha:  1   Beta:  3
 Number of excitations:                3278010
 Spin case  3   Alpha:  2   Beta:  2
 Number of excitations:               14790360
 Spin case  4   Alpha:  3   Beta:  1
 Number of excitations:                6321160
 Spin case  5   Alpha:  4   Beta:  0
 Number of excitations:                 183659
 Number of                     4 -fold excitations:               24612922

 Memory requirements /Mbyte/:
               Minimal        Optimal
 Real*8:         51.1453        86.3932
 Integer:        16.1832
 Total:          67.3284       102.5764


 ************************ 2019-01-04 07:25:19 *************************
 Executing mrcc...

 **********************************************************************
 CCSDT(Q) calculation


 Allocation of   86.4 Mbytes of memory...
 Number of spinorbitals: 116
 Number of alpha electrons:  5
 Number of beta  electrons:  4
 Spin multiplicity: 2
 z-component of spin:  0.5
 Spatial symmetry: 1
 Convergence criterion:  1.0E-07
 Construction of occupation graphs...
 Number of 0-fold excitations: 1
 Number of 1-fold excitations: 91
 Number of 2-fold excitations: 10602
 Number of 3-fold excitations: 700018
 Total number of determinants: 710712
 Calculation of coupling coefficients...
 Initial cluster amplitudes are generated.
 Length of intermediate file (Mbytes):      22.5
 Reading integral list from unit 55...
 Sorting integrals...
 Sorting integrals...
 Sorting integrals...
 Sorting integrals...
 Energy of reference determinant [au]:     -47.357159467575
 Calculation of MP denominators...

 Starting CC iteration...
 ======================================================================
 Norm of residual vector:     2.05791915
 CPU time [min]:     0.216                   Wall time [min]:     0.218

 Iteration  1  CC energy:   -47.62661997  Energy decrease:   0.26946050
 ======================================================================
 Norm of residual vector:     0.29990943
 CPU time [min]:     0.379                   Wall time [min]:     0.482

 Iteration  2  CC energy:   -47.63145569  Energy decrease:   0.00483573
 ======================================================================
 Norm of residual vector:     0.04739171
 CPU time [min]:     0.550                   Wall time [min]:     0.654

 Iteration  3  CC energy:   -47.63695335  Energy decrease:   0.00549766
 ======================================================================
 Norm of residual vector:     0.01060130
 CPU time [min]:     0.723                   Wall time [min]:     0.828

 Iteration  4  CC energy:   -47.63773594  Energy decrease:   0.00078258
 ======================================================================
 Norm of residual vector:     0.00514575
 CPU time [min]:     0.895                   Wall time [min]:     1.001

 Iteration  5  CC energy:   -47.63724351  Energy decrease:   0.00049243
 ======================================================================
 Norm of residual vector:     0.00168795
 CPU time [min]:     1.066                   Wall time [min]:     1.174

 Iteration  6  CC energy:   -47.63721462  Energy decrease:   0.00002889
 ======================================================================
 Norm of residual vector:     0.00047711
 CPU time [min]:     1.242                   Wall time [min]:     1.351

 Iteration  7  CC energy:   -47.63723167  Energy decrease:   0.00001704
 ======================================================================
 Norm of residual vector:     0.00009170
 CPU time [min]:     1.421                   Wall time [min]:     1.531

 Iteration  8  CC energy:   -47.63723365  Energy decrease:   0.00000198
 ======================================================================
 Norm of residual vector:     0.00002440
 CPU time [min]:     1.598                   Wall time [min]:     1.710

 Iteration  9  CC energy:   -47.63723330  Energy decrease:   0.00000035
 ======================================================================
 Norm of residual vector:     0.00000576
 CPU time [min]:     1.766                   Wall time [min]:     1.880

 Iteration 10  CC energy:   -47.63723319  Energy decrease:   0.00000011
 ======================================================================
 Norm of residual vector:     0.00000136
 CPU time [min]:     1.937                   Wall time [min]:     2.052

 Iteration 11  CC energy:   -47.63723319  Energy decrease:   0.00000001
 ======================================================================
 Norm of residual vector:     0.00000035
 CPU time [min]:     2.115                   Wall time [min]:     2.231

 Iteration 12  CC energy:   -47.63723320  Energy decrease:   3.9304E-09
 ======================================================================
 Norm of residual vector:     0.00000008
 CPU time [min]:     2.277                   Wall time [min]:     2.395

 Iteration 13  CC energy:   -47.63723320  Energy decrease:   2.1195E-10
 ======================================================================

 Iteration has converged in 13 steps.

 Final results:
 Total CCSDT energy [au]:            -47.637233196475
 Total MP2 energy [au]:              -47.626619968575

 Perturbative corrections are calculated...
 ======================================================================
 Spin case  1   Alpha:  0   Beta:  4
 Number of excitations:        39733
 CPU time [min]:     2.606                   Wall time [min]:     2.725
 ======================================================================
 Spin case  2   Alpha:  1   Beta:  3
 Number of excitations:        3278010
 CPU time [min]:     7.661                   Wall time [min]:     7.780
 ======================================================================
 Spin case  3   Alpha:  2   Beta:  2
 Number of excitations:        14790360
 CPU time [min]:    18.613                   Wall time [min]:    18.731
 ======================================================================
 Spin case  4   Alpha:  3   Beta:  1
 Number of excitations:        6321160
 CPU time [min]:    24.128                   Wall time [min]:    24.247
 ======================================================================
 Spin case  5   Alpha:  4   Beta:  0
 Number of excitations:        183659
 CPU time [min]:    24.506                   Wall time [min]:    24.624
 ======================================================================
 Number of 4-fold excitations: 24612922
 CPU time [min]:    24.506                   Wall time [min]:    24.624

 Total CCSDT[Q] energy [au]:         -47.637199977662
 Total CCSDT(Q) energy [au]:         -47.637261821262

 ************************ 2019-01-04 07:50:03 *************************
                      Normal termination of mrcc.
 **********************************************************************
 !CCSDT STATE 1.1 Energy              -47.637233196475
 !MP2 STATE 1.1 Energy                -47.626619968575
 !CCSDT[Q] STATE 1.1 Energy           -47.637199977662
 !CCSDT(Q) STATE 1.1 Energy           -47.637261821262
 
 CPU-time for MRCC:           1470.4 sec
 Elapsed-time for MRCC:       1489.0 sec

 Variable memory set to 8000000000 words,  buffer space   230000 words



 **********************************************************************************************************************************
 DATASETS  * FILE   NREC   LENGTH (MB)   RECORD NAMES
              1      20       20.99       500      610      700      900      950      970     1000      129      960     1100   
                                          VAR    BASINP    GEOM    SYMINP    ZMAT    AOBASIS   BASIS     P2S    ABASIS      S 
                                         1400     1410     1420     1200     1210     1080     1600     1650     1300     1700   
                                         EKIN       V       ECP      H0       H01     AOSYM     SMH    MOLCAS    ERIS     OPER   

              2       5        5.30       700     1000      520     2100     2200   
                                         GEOM     BASIS   MCVARS     RHF      UHF  

 PROGRAMS   *        TOTAL      MRCC       UHF        HF       INT
 CPU TIMES  *      1476.26   1473.54      0.02      0.07      2.51
 REAL TIME  *      1531.04 SEC
 DISK USED  *        26.57 MB      
 **********************************************************************************************************************************
 SETTING POSTHF(I)      =       -47.63726182  AU                              
                                                                                                                                                                                                                                                                

        SCF            POSTHF        EKIN           POT
    -47.35715947   -47.63726182   36.52739440   -13.34264235
                                                  

 CCSDT(Q)/USERDEF energy=    -47.637261821262

        CCSDT(Q)        HF-SCF  
    -47.63726182    -47.35715947
 **********************************************************************************************************************************
 Molpro calculation terminated
 Variable memory released
