
 Primary working directories    : /global/cscratch1/sd/aannabe
 Secondary working directories  : /global/cscratch1/sd/aannabe
 Wavefunction directory         : /global/homes/a/aannabe/wfu/
 Main file repository           : /global/cscratch1/sd/aannabe/

 SHA1      : 19cd028119e0e09f93f0674bd8af7968d9b3eff6
 NAME      : 2015.1.36
 ARCHNAME  : linux/x86_64
 FC        : /opt/cray/pe/craype/2.5.14/bin/ftn
 BLASLIB   : -L/opt/intel/compilers_and_libraries_2018.1.163/linux/mkl/lib/intel64 -Wl,-_start-group -lmkl_intel_ilp64 -lmkl_intel_thread -lmkl_core -Wl,-_end-group -liomp5
 id        : lbl

 Nodes     nprocs
 nid00468     1

 Using customized tuning parameters: mindgm=7; mindgv=16; mindgc=1; mindgr=1; noblas=0; minvec=7
 default implementation of scratch files=df  

 ***,Br
 memory,8,g
 gthresh,twoint=1.e-12
 
 gprint,basis,orbitals
 gexpec,ekin,pot
 
 angstrom
 geometry={
 1                                                                               ! Number of atoms
 Br 0.0 0.0 0.0
 }
 
 basis={
 
 Including file /global/homes/a/aannabe/repos/pseudopotentiallibrary/recipes/Br/ccECP/Br.ccECP.molpro
 
                                   !include,/global/homes/a/aannabe/repos/pseudopotentiallibrary/recipes/Br/ccECP/Br.cc-pVDZ.molpro
                                  !include,/global/homes/a/aannabe/repos/pseudopotentiallibrary/recipes/Br/ccECP/Br.cc-pCVDZ.molpro
 Including file /global/homes/a/aannabe/repos/pseudopotentiallibrary/recipes/Br/ccECP/Br.aug-cc-pVDZ.molpro
 
 
 }
 
 {hf
 wf,7,3,1
 occ,1,1,1,0,1,0,0,0
                                                                                 !open,1.3
 closed,1,1,0,0,1,0,0,0
                                                                                 !sym,
 }
 scf(i)=energy
 
 _CC_NORM_MAX=2.0
 {uccsd(t)
 maxit,100
 core
 }
 posthf(i)=energy
 
 table,scf,posthf,ekin,pot
 save,2.csv,new
 
 

 Variables initialized (889), CPU time= 0.00 sec
 Commands  initialized (702), CPU time= 0.02 sec, 572 directives.
 Default parameters read. Elapsed time= 0.08 sec

 Checking input...
 Passed
1


                                         ***  PROGRAM SYSTEM MOLPRO  ***
                                       Copyright, TTI GmbH Stuttgart, 2015
                                    Version 2015.1 linked Dec 29 2018 15:55:43


 **********************************************************************************************************************************
 LABEL *   Br                                                                            
  64 bit serial version                                                                  DATE: 25-Jun-19          TIME: 12:02:56  
 **********************************************************************************************************************************

 SHA1:             19cd028119e0e09f93f0674bd8af7968d9b3eff6
 **********************************************************************************************************************************

 THRESHOLDS:

 ZERO    =  1.00D-12  ONEINT  =  1.00D-12  TWOINT  =  1.00D-12  PREFAC  =  1.00D-14  LOCALI  =  1.00D-09  EORDER  =  1.00D-04
 ENERGY  =  0.00D+00  ETEST   =  0.00D+00  EDENS   =  0.00D+00  THRDEDEF=  1.00D-06  GRADIENT=  1.00D-02  STEP    =  1.00D-03
 ORBITAL =  1.00D-05  CIVEC   =  1.00D-05  COEFF   =  1.00D-04  PRINTCI =  5.00D-02  PUNCHCI =  9.90D+01  OPTGRAD =  3.00D-04
 OPTENERG=  1.00D-06  OPTSTEP =  3.00D-04  THRGRAD =  1.00D-10  COMPRESS=  1.00D-11  VARMIN  =  1.00D-07  VARMAX  =  1.00D-03
 THRDOUB =  0.00D+00  THRDIV  =  1.00D-05  THRRED  =  1.00D-07  THRPSP  =  1.00D+00  THRDC   =  1.00D-10  THRCS   =  1.00D-10
 THRNRM  =  1.00D-08  THREQ   =  0.00D+00  THRDE   =  1.00D+00  THRREF  =  1.00D-05  SPARFAC =  1.00D+00  THRDLP  =  1.00D-07
 THRDIA  =  1.00D-10  THRDLS  =  1.00D-07  THRGPS  =  0.00D+00  THRKEX  =  0.00D+00  THRDIS  =  2.00D-01  THRVAR  =  1.00D-10
 THRLOC  =  1.00D-06  THRGAP  =  1.00D-06  THRLOCT = -1.00D+00  THRGAPT = -1.00D+00  THRORB  =  1.00D-06  THRMLTP =  0.00D+00
 THRCPQCI=  1.00D-10  KEXTA   =  0.00D+00  THRCOARS=  0.00D+00  SYMTOL  =  1.00D-06  GRADTOL =  1.00D-06  THROVL  =  1.00D-08
 THRORTH =  1.00D-08  GRID    =  1.00D-06  GRIDMAX =  1.00D-03  DTMAX   =  0.00D+00  THROCCDE=  1.00D-01  THROCCDE=  1.00D-01



 ZUNIT=ANG
 

Geometry recognized as XYZ


 Variable memory set to 8000000000 words,  buffer space   230000 words

 SETTING BASIS          =    USERDEF


 Recomputing integrals since basis changed


 Using spherical harmonics



 PROGRAM * SEWARD (Integral evaluation for generally contracted gaussian basis sets)     Author: Roland Lindh, 1990

 Geometry written to block  1 of record 700

 Orientation using atomic masses  
 Molecule type: Atom
 Symmetry elements: X,Y,Z
 Rotational constants:       0.0000000      0.0000000      0.0000000 GHz  (calculated with average atomic masses)

 Point group  D2h 



 ATOMIC COORDINATES

 NR  ATOM    CHARGE       X              Y              Z

   1  BR      7.00    0.000000000    0.000000000    0.000000000


          BR  CORE POTENTIAL

          f POTENTIAL

 POWERS             1              3              2              2
 EXPONENTIALS   3.665770       5.293023       3.176376       2.897544    
 COEFFICIENTS   7.000000       25.66039       13.04026      -21.90884    

          s - f POTENTIAL

 POWERS             2              2
 EXPONENTIALS   4.971807       2.042687    
 COEFFICIENTS   85.88435       4.621255    

          p - f POTENTIAL

 POWERS             2              2
 EXPONENTIALS   4.711839       2.384293    
 COEFFICIENTS   55.36172       11.03141    

          d - f POTENTIAL

 POWERS             2              2
 EXPONENTIALS   3.412863       1.530285    
 COEFFICIENTS   26.41041       5.468739    


 BASIS DATA

   Nr Sym  Nuc  Type         Exponents   Contraction coefficients

    1.1 Ag    1  1s          60.457695    -0.000452
                             27.422852     0.003372
                             12.438662    -0.025045
                              5.642021     0.170101
                              2.559150    -0.430992
                              1.160798    -0.154358
                              0.526524     0.525458
                              0.238824     0.592735
                              0.108328     0.169490
    2.1 Ag    1  1s           0.071724     1.000000
    3.1 Ag    1  1s           0.028690     1.000000
    4.1 Ag    1  3d0          0.416740     1.000000
    5.1 Ag    1  3d2+         0.416740     1.000000
    6.1 Ag    1  3d0          0.166696     1.000000
    7.1 Ag    1  3d2+         0.166696     1.000000
    1.2 B3u   1  2px         27.437987     0.000087
                             12.887440    -0.001797
                              6.053145     0.027150
                              2.843122    -0.134143
                              1.335395    -0.006234
                              0.627226     0.309551
                              0.294604     0.440285
                              0.138374     0.316750
                              0.064993     0.092533
    2.2 B3u   1  2px          0.126435     1.000000
    3.2 B3u   1  2px          0.050574     1.000000
    1.3 B2u   1  2py         27.437987     0.000087
                             12.887440    -0.001797
                              6.053145     0.027150
                              2.843122    -0.134143
                              1.335395    -0.006234
                              0.627226     0.309551
                              0.294604     0.440285
                              0.138374     0.316750
                              0.064993     0.092533
    2.3 B2u   1  2py          0.126435     1.000000
    3.3 B2u   1  2py          0.050574     1.000000
    1.4 B1g   1  3d2-         0.416740     1.000000
    2.4 B1g   1  3d2-         0.166696     1.000000
    1.5 B1u   1  2pz         27.437987     0.000087
                             12.887440    -0.001797
                              6.053145     0.027150
                              2.843122    -0.134143
                              1.335395    -0.006234
                              0.627226     0.309551
                              0.294604     0.440285
                              0.138374     0.316750
                              0.064993     0.092533
    2.5 B1u   1  2pz          0.126435     1.000000
    3.5 B1u   1  2pz          0.050574     1.000000
    1.6 B2g   1  3d1+         0.416740     1.000000
    2.6 B2g   1  3d1+         0.166696     1.000000
    1.7 B3g   1  3d1-         0.416740     1.000000
    2.7 B3g   1  3d1-         0.166696     1.000000

 NUCLEAR CHARGE:                    7
 NUMBER OF PRIMITIVE AOS:          56
 NUMBER OF SYMMETRY AOS:           54
 NUMBER OF CONTRACTIONS:           22   (   7Ag  +   3B3u +   3B2u +   2B1g +   3B1u +   2B2g +   2B3g +   0Au  )
 NUMBER OF CORE ORBITALS:           0   (   0Ag  +   0B3u +   0B2u +   0B1g +   0B1u +   0B2g +   0B3g +   0Au  )
 NUMBER OF VALENCE ORBITALS:        4   (   1Ag  +   1B3u +   1B2u +   0B1g +   1B1u +   0B2g +   0B3g +   0Au  )


 NUCLEAR REPULSION ENERGY    0.00000000

 EXTRA SYMMETRY OF AOS IN SYMMETRY 1:   1 1 1 2 3 2 3

 Eigenvalues of metric

         1 0.606E-01 0.299E+00 0.299E+00 0.495E+00 0.170E+01 0.170E+01 0.244E+01
         2 0.642E-01 0.442E+00 0.249E+01
         3 0.642E-01 0.442E+00 0.249E+01
         4 0.299E+00 0.170E+01
         5 0.642E-01 0.442E+00 0.249E+01
         6 0.299E+00 0.170E+01
         7 0.299E+00 0.170E+01


 Contracted 2-electron integrals neglected if value below      1.0D-12
 AO integral compression algorithm  1   Integral accuracy      1.0D-12

     0.262 MB (compressed) written to integral file (100.0%)


 NUMBER OF SORTED TWO-ELECTRON INTEGRALS:       5272.     BUFFER LENGTH:  32768
 NUMBER OF SEGMENTS:   1  SEGMENT LENGTH:       5272      RECORD LENGTH: 524288

 Memory used in sort:       0.56 MW

 SORT1 READ       12220. AND WROTE        4734. INTEGRALS IN      1 RECORDS. CPU TIME:     0.00 SEC, REAL TIME:     0.01 SEC
 SORT2 READ        4734. AND WROTE        5272. INTEGRALS IN      1 RECORDS. CPU TIME:     0.00 SEC, REAL TIME:     0.01 SEC

 FILE SIZES:   FILE 1:    20.1 MBYTE,  FILE 4:     4.2 MBYTE,   TOTAL:     24.4 MBYTE

 OPERATOR DM      FOR CENTER  0  COORDINATES:    0.000000    0.000000    0.000000
 OPERATOR EKIN    FOR CENTER  0  COORDINATES:    0.000000    0.000000    0.000000
 OPERATOR POT     FOR CENTER  0  COORDINATES:    0.000000    0.000000    0.000000


 **********************************************************************************************************************************
 DATASETS  * FILE   NREC   LENGTH (MB)   RECORD NAMES
              1      20       19.92       500      610      700      900      950      970     1000      129      960     1100   
                                          VAR    BASINP    GEOM    SYMINP    ZMAT    AOBASIS   BASIS     P2S    ABASIS      S 
                                         1400     1410     1420     1200     1210     1080     1600     1650     1300     1700   
                                         EKIN       V       ECP      H0       H01     AOSYM     SMH    MOLCAS    ERIS     OPER   

 PROGRAMS   *        TOTAL       INT
 CPU TIMES  *         1.80      1.70
 REAL TIME  *        10.87 SEC
 DISK USED  *        24.63 MB      
 **********************************************************************************************************************************


 PROGRAM * RHF-SCF (OPEN SHELL)       Authors: W. Meyer, H.-J. Werner


 NUMBER OF ELECTRONS:       4+    3-    SPACE SYMMETRY=3    SPIN SYMMETRY: Doublet 
 CONVERGENCE THRESHOLDS:    1.00E-05 (Density)    1.00E-07 (Energy)
 MAX. NUMBER OF ITERATIONS:       60
 INTERPOLATION TYPE:            DIIS
 INTERPOLATION STEPS:              2 (START)      1 (STEP)
 LEVEL SHIFTS:                 -0.60 (CLOSED) -0.30 (OPEN) 

 Number of closed-shell orbitals:    3 (   1   1   0   0   1   0   0 )
 Number of open-shell orbitals:      1 (   0   0   1   0   0   0   0 )



   Atom=BR basis=ECP28MDF_GUESS    lmin=0  lmax=1

 Orbital guess generated from atomic densities. Full valence occupancy:    1   1   1   0   1   0   0   0


 Molecular orbital dump at record        2100.2

 ITERATION    DDIFF          GRAD             ENERGY        2-EL.EN.            DIPOLE MOMENTS         DIIS   ORB.
    1      0.000D+00      0.000D+00       -13.11864098     17.435089    0.00000    0.00000    0.00000    0    start
    2      0.000D+00      0.602D-02       -13.11987941     17.525956    0.00000    0.00000    0.00000    1    diag,B
    3      0.136D-01      0.214D-02       -13.12013032     17.567440    0.00000    0.00000    0.00000    2    diag,B
    4      0.599D-02      0.605D-03       -13.12015365     17.572701    0.00000    0.00000    0.00000    3    diag,B
    5      0.216D-02      0.857D-04       -13.12015396     17.573027    0.00000    0.00000    0.00000    4    diag,B
    6      0.358D-03      0.836D-05       -13.12015396     17.573162    0.00000    0.00000    0.00000    5    diag,B
    7      0.260D-04      0.189D-05       -13.12015396     17.573140    0.00000    0.00000    0.00000    6    fixocc
    8      0.530D-05      0.354D-06       -13.12015396     17.573144    0.00000    0.00000    0.00000    0    orth

 Final alpha occupancy:   1   1   1   0   1   0   0
 Final beta  occupancy:   1   1   0   0   1   0   0

 !RHF STATE 1.3 Energy                -13.120153961375
 Nuclear energy                         0.00000000
 One-electron energy                  -21.90672581
 Two-electron energy                    8.78657185
 Virial quotient                       -2.85121774
 !RHF STATE 1.3 Dipole moment           0.00000000     0.00000000     0.00000000
 Dipole moment /Debye                   0.00000000     0.00000000     0.00000000
 

 !RHF expec          <1.3|EKIN|1.3>     4.601596641501
 
 !RHF expec           <1.3|POT|1.3>    -4.024968727348

 ELECTRON ORBITALS
 =================


   Orb  Occ    Energy  Couls-En    Coefficients

                                   1 1s      1 1s      1 1s      1 3d0     1 3d2+    1 3d0     1 3d2+ 

   1.1   2    -1.0198   -4.6425  1.000153 -0.001106  0.001376 -0.000404 -0.000700  0.002988  0.005175

                                   1 2px     1 2px     1 2px  

   1.2   2    -0.4440   -3.3704  1.000077 -0.000317  0.000360

                                   1 2py     1 2py     1 2py  

   1.3   +    -0.5180   -3.4738  1.042701 -0.031193 -0.027624

                                   1 2pz     1 2pz     1 2pz  

   1.5   2    -0.4440   -3.3704  1.000077 -0.000317  0.000360

 HOMO      1.2    -0.444013 =     -12.0822eV
 LUMO      2.1     0.049355 =       1.3430eV
 LUMO-HOMO         0.493368 =      13.4252eV


 **********************************************************************************************************************************
 DATASETS  * FILE   NREC   LENGTH (MB)   RECORD NAMES
              1      20       19.92       500      610      700      900      950      970     1000      129      960     1100   
                                          VAR    BASINP    GEOM    SYMINP    ZMAT    AOBASIS   BASIS     P2S    ABASIS      S 
                                         1400     1410     1420     1200     1210     1080     1600     1650     1300     1700   
                                         EKIN       V       ECP      H0       H01     AOSYM     SMH    MOLCAS    ERIS     OPER   

              2       4        2.75       700     1000      520     2100   
                                         GEOM     BASIS   MCVARS     RHF  

 PROGRAMS   *        TOTAL        HF       INT
 CPU TIMES  *         1.82      0.02      1.70
 REAL TIME  *        11.05 SEC
 DISK USED  *        24.63 MB      
 **********************************************************************************************************************************
 SETTING SCF(I)         =       -13.12015396  AU                              
 SETTING _CC_NORM_MAX   =         2.00000000                                  


 PROGRAM * CCSD (Unrestricted open-shell coupled cluster)     Authors: C. Hampel, H.-J. Werner, 1991, M. Deegan, P.J. Knowles, 1992


 Convergence thresholds:  THRVAR = 1.00D-08  THRDEN = 1.00D-06

 CCSD(T)     terms to be evaluated (factor= 1.000)


 Number of closed-shell orbitals:   3 (   1   1   0   0   1   0   0 )
 Number of active  orbitals:        1 (   0   0   1   0   0   0   0 )
 Number of external orbitals:      18 (   6   2   2   2   2   2   2 )

 Memory could be reduced to 0.30 Mwords without degradation in triples

 Number of N-1 electron functions:               7
 Number of N-2 electron functions:              21
 Number of singly external CSFs:                23
 Number of doubly external CSFs:               789
 Total number of CSFs:                         812

 Molecular orbitals read from record     2100.2  Type=RHF/CANONICAL (state 1.3)

 Integral transformation finished. Total CPU:   0.00 sec, npass=  1  Memory used:   0.07 MW

 Starting RMP2 calculation

 ITER.      SQ.NORM     CORR.ENERGY   TOTAL ENERGY   ENERGY CHANGE        DEN1      VAR(S)    VAR(P)  DIIS     TIME
   1      1.04388214    -0.10106221   -13.22121617    -0.10106221    -0.00055416  0.97D-05  0.25D-03  1  1     0.01
   2      1.04450801    -0.10166781   -13.22182178    -0.00060560    -0.00000054  0.36D-07  0.23D-06  2  2     0.01
   3      1.04451811    -0.10167275   -13.22182672    -0.00000494    -0.00000000  0.46D-09  0.39D-09  3  3     0.01
   4      1.04451827    -0.10167281   -13.22182678    -0.00000006    -0.00000000  0.35D-11  0.17D-11  4  4     0.01

 Norm of t1 vector:      0.04024785      S-energy:    -0.00264573      T1 diagnostic:  0.00008789
 Norm of t2 vector:      0.20711925      P-energy:    -0.09902708
                                         Alpha-Beta:  -0.07433137
                                         Alpha-Alpha: -0.01667506
                                         Beta-Beta:   -0.00802065

 Spin contamination <S**2-Sz**2-Sz>     0.00369747
  Reference energy                    -13.120153961375
  RHF-RMP2 correlation energy          -0.101672814720
 !RHF-RMP2 energy                     -13.221826776094

 Starting UCCSD calculation

 ITER.      SQ.NORM     CORR.ENERGY   TOTAL ENERGY   ENERGY CHANGE        DEN1      VAR(S)    VAR(P)  DIIS     TIME
   1      1.05212787    -0.10995488   -13.23010884    -0.10995488    -0.00333856  0.10D-03  0.13D-02  1  1     0.01
   2      1.05666398    -0.11376845   -13.23392241    -0.00381357    -0.00012014  0.16D-04  0.46D-04  2  2     0.01
   3      1.05755599    -0.11419338   -13.23434734    -0.00042493    -0.00000410  0.62D-06  0.21D-05  3  3     0.02
   4      1.05769612    -0.11424006   -13.23439403    -0.00004669    -0.00000039  0.83D-08  0.26D-06  4  4     0.02
   5      1.05771910    -0.11423920   -13.23439317     0.00000086    -0.00000004  0.34D-08  0.22D-07  5  5     0.02
   6      1.05772862    -0.11424279   -13.23439675    -0.00000358    -0.00000000  0.71D-09  0.68D-09  6  6     0.03
   7      1.05772734    -0.11424181   -13.23439578     0.00000097    -0.00000000  0.10D-09  0.63D-10  6  1     0.03

 Norm of t1 vector:      0.04549489      S-energy:    -0.00272735      T1 diagnostic:  0.00424360
                                                                       D1 diagnostic:  0.00888380
 Norm of t2 vector:      0.23591853      P-energy:    -0.11151446
                                         Alpha-Beta:  -0.08725314
                                         Alpha-Alpha: -0.01644837
                                         Beta-Beta:   -0.00781295

 Spin contamination <S**2-Sz**2-Sz>     0.00103090

 Memory could be reduced to 0.30 Mwords without degradation in triples
 

 RESULTS
 =======

  Reference energy                    -13.120153961375
  UCCSD singles energy                 -0.002727353662
  UCCSD pair energy                    -0.111514460218
  UCCSD correlation energy             -0.114241813880
  Triples (T) contribution             -0.001733423795
  Total correlation energy             -0.115975237675
 
  RHF-UCCSD energy                    -13.234395775255
  RHF-UCCSD[T] energy                 -13.236088724923
  RHF-UCCSD-T energy                  -13.236117536811
 !RHF-UCCSD(T) energy                 -13.236129199049

 Program statistics:

 Available memory in ccsd:              7999999732
 Min. memory needed in ccsd:                  4816
 Max. memory used in ccsd:                    5519
 Max. memory used in cckext:                 38154 ( 7 integral passes)
 Max. memory used in cckint:                 68372 ( 1 integral passes)



 **********************************************************************************************************************************
 DATASETS  * FILE   NREC   LENGTH (MB)   RECORD NAMES
              1      20       19.92       500      610      700      900      950      970     1000      129      960     1100   
                                          VAR    BASINP    GEOM    SYMINP    ZMAT    AOBASIS   BASIS     P2S    ABASIS      S 
                                         1400     1410     1420     1200     1210     1080     1600     1650     1300     1700   
                                         EKIN       V       ECP      H0       H01     AOSYM     SMH    MOLCAS    ERIS     OPER   

              2       4        2.75       700     1000      520     2100   
                                         GEOM     BASIS   MCVARS     RHF  

 PROGRAMS   *        TOTAL  UCCSD(T)        HF       INT
 CPU TIMES  *         1.89      0.07      0.02      1.70
 REAL TIME  *        11.64 SEC
 DISK USED  *        24.63 MB      
 **********************************************************************************************************************************
 SETTING POSTHF(I)      =       -13.23612920  AU                              
                                                                                                                                                                                                                                                                

        SCF            POSTHF       EKIN          POT
    -13.12015396   -13.23612920   4.60159664   -4.02496873
                                                  

 UCCSD(T)/USERDEF energy=    -13.236129199049

        UCCSD(T)        HF-SCF  
    -13.23612920    -13.12015396
 **********************************************************************************************************************************
 Molpro calculation terminated
 Variable memory released
