
 Primary working directories    : /global/cscratch1/sd/aannabe
 Secondary working directories  : /global/cscratch1/sd/aannabe
 Wavefunction directory         : /global/homes/a/aannabe/wfu/
 Main file repository           : /global/cscratch1/sd/aannabe/

 SHA1      : 2873118e99aab1bc19f5b6fc1784693c06d15c95
 NAME      : 2015.1.8
 ARCHNAME  : linux/x86_64
 FC        : /opt/cray/pe/craype/2.5.5/bin/ftn
 BLASLIB   : -Wl,-_start-group /opt/intel/compilers_and_libraries_2016.3.210/linux/mkl/lib/intel64/libmkl_intel_ilp64.a /opt/intel/compilers_and_libraries_2016.3.210/linux/mkl/lib/intel64/libmkl_intel_thread.a /opt/intel/compilers_and_libraries_2016.3.210/linux/mkl/lib/intel64/libmkl_core.a -Wl,-_end-group
 id        : lbl

 Nodes     nprocs
 nid00502     1

 Using customized tuning parameters: mindgm=8; mindgv=16; mindgc=4; mindgr=1; noblas=0; minvec=7
 default implementation of scratch files=df  

 ***,C
 memory,512,m
 gthresh,twoint=1.e-12
 
 gprint,basis,orbitals
 gexpec,ekin,pot
 
 angstrom
 geometry={
 1                                                                               ! Number of atoms
 C 0.0 0.0 0.0
 }
 
 basis={
 Including file /global/homes/a/aannabe/docs/totals_bfd/pps/C.pp
 Including file /global/homes/a/aannabe/docs/totals_bfd/basis/aug-cc-pVnZ/C_tz.basis
 }
 
 {hf
 wf,4,6,2
 occ,1,1,0,0,1,0,0,0
                                                                                 !open,1.2,1.5
 closed,1,0,0,0,0,0,0,0
                                                                                 !sym,
 }
 scf(i)=energy
 
 _CC_NORM_MAX=2.0
 {rccsd(t)
 maxit,100
 core
 }
 posthf(i)=energy
 
 table,scf,posthf,ekin,pot
 save,3.csv,new
 
 

 Variables initialized (889), CPU time= 0.00 sec
 Commands  initialized (702), CPU time= 0.02 sec, 572 directives.
 Default parameters read. Elapsed time= 0.22 sec

 Checking input...
 Passed
1


                                         ***  PROGRAM SYSTEM MOLPRO  ***
                                       Copyright, TTI GmbH Stuttgart, 2015
                                    Version 2015.1 linked Sep  7 2016 23:09:38


 **********************************************************************************************************************************
 LABEL *   C                                                                             
  64 bit serial version                                                                  DATE: 19-Jun-18          TIME: 15:13:17  
 **********************************************************************************************************************************

 SHA1:             2873118e99aab1bc19f5b6fc1784693c06d15c95
 **********************************************************************************************************************************

 THRESHOLDS:

 ZERO    =  1.00D-12  ONEINT  =  1.00D-12  TWOINT  =  1.00D-12  PREFAC  =  1.00D-14  LOCALI  =  1.00D-09  EORDER  =  1.00D-04
 ENERGY  =  0.00D+00  ETEST   =  0.00D+00  EDENS   =  0.00D+00  THRDEDEF=  1.00D-06  GRADIENT=  1.00D-02  STEP    =  1.00D-03
 ORBITAL =  1.00D-05  CIVEC   =  1.00D-05  COEFF   =  1.00D-04  PRINTCI =  5.00D-02  PUNCHCI =  9.90D+01  OPTGRAD =  3.00D-04
 OPTENERG=  1.00D-06  OPTSTEP =  3.00D-04  THRGRAD =  1.00D-10  COMPRESS=  1.00D-11  VARMIN  =  1.00D-07  VARMAX  =  1.00D-03
 THRDOUB =  0.00D+00  THRDIV  =  1.00D-05  THRRED  =  1.00D-07  THRPSP  =  1.00D+00  THRDC   =  1.00D-10  THRCS   =  1.00D-10
 THRNRM  =  1.00D-08  THREQ   =  0.00D+00  THRDE   =  1.00D+00  THRREF  =  1.00D-05  SPARFAC =  1.00D+00  THRDLP  =  1.00D-07
 THRDIA  =  1.00D-10  THRDLS  =  1.00D-07  THRGPS  =  0.00D+00  THRKEX  =  0.00D+00  THRDIS  =  2.00D-01  THRVAR  =  1.00D-10
 THRLOC  =  1.00D-06  THRGAP  =  1.00D-06  THRLOCT = -1.00D+00  THRGAPT = -1.00D+00  THRORB  =  1.00D-06  THRMLTP =  0.00D+00
 THRCPQCI=  1.00D-10  KEXTA   =  0.00D+00  THRCOARS=  0.00D+00  SYMTOL  =  1.00D-06  GRADTOL =  1.00D-06  THROVL  =  1.00D-08
 THRORTH =  1.00D-08  GRID    =  1.00D-06  GRIDMAX =  1.00D-03  DTMAX   =  0.00D+00  THROCCDE=  1.00D-01  THROCCDE=  1.00D-01



 ZUNIT=ANG
 

Geometry recognized as XYZ


 Variable memory set to  512000000 words,  buffer space   230000 words

 SETTING BASIS          =    USERDEF


 Recomputing integrals since basis changed


 Using spherical harmonics



 PROGRAM * SEWARD (Integral evaluation for generally contracted gaussian basis sets)     Author: Roland Lindh, 1990

 Geometry written to block  1 of record 700

 Orientation using atomic masses  
 Molecule type: Atom
 Symmetry elements: X,Y,Z
 Rotational constants:       0.0000000      0.0000000      0.0000000 GHz  (calculated with average atomic masses)

 Point group  D2h 



 ATOMIC COORDINATES

 NR  ATOM    CHARGE       X              Y              Z

   1  C       4.00    0.000000000    0.000000000    0.000000000


          C   CORE POTENTIAL

          p POTENTIAL

 POWERS             1              3              2
 EXPONENTIALS   8.359738       4.483619       3.938313    
 COEFFICIENTS   4.000000       33.43895      -19.17537    

          s - p POTENTIAL

 POWERS             2
 EXPONENTIALS   5.029916    
 COEFFICIENTS   22.55164    


 BASIS DATA

   Nr Sym  Nuc  Type         Exponents   Contraction coefficients

    1.1 Ag    1  1s           0.051344     0.013991
                              0.102619     0.169852
                              0.205100     0.397529
                              0.409924     0.380369
                              0.819297     0.180113
                              1.637494    -0.033512
                              3.272791    -0.121499
                              6.541187     0.015176
                             13.073594    -0.000705
    2.1 Ag    1  1s           0.053120     1.000000
    3.1 Ag    1  1s           0.132800     1.000000
    4.1 Ag    1  1s           0.921552     1.000000
    5.1 Ag    1  3d0          0.131794     1.000000
    6.1 Ag    1  3d2+         0.131794     1.000000
    7.1 Ag    1  3d0          0.329486     1.000000
    8.1 Ag    1  3d2+         0.329486     1.000000
    9.1 Ag    1  3d0          1.141611     1.000000
   10.1 Ag    1  3d2+         1.141611     1.000000
    1.2 B3u   1  2px          0.029281     0.001787
                              0.058547     0.050426
                              0.117063     0.191634
                              0.234064     0.302667
                              0.468003     0.289868
                              0.935757     0.210979
                              1.871016     0.112024
                              3.741035     0.054425
                              7.480076     0.021931
    2.2 B3u   1  2px          0.050709     1.000000
    3.2 B3u   1  2px          0.126772     1.000000
    4.2 B3u   1  2px          0.376742     1.000000
    5.2 B3u   1  4f1+         0.309394     1.000000
    6.2 B3u   1  4f3+         0.309394     1.000000
    7.2 B3u   1  4f1+         0.773485     1.000000
    8.2 B3u   1  4f3+         0.773485     1.000000
    1.3 B2u   1  2py          0.029281     0.001787
                              0.058547     0.050426
                              0.117063     0.191634
                              0.234064     0.302667
                              0.468003     0.289868
                              0.935757     0.210979
                              1.871016     0.112024
                              3.741035     0.054425
                              7.480076     0.021931
    2.3 B2u   1  2py          0.050709     1.000000
    3.3 B2u   1  2py          0.126772     1.000000
    4.3 B2u   1  2py          0.376742     1.000000
    5.3 B2u   1  4f1-         0.309394     1.000000
    6.3 B2u   1  4f3-         0.309394     1.000000
    7.3 B2u   1  4f1-         0.773485     1.000000
    8.3 B2u   1  4f3-         0.773485     1.000000
    1.4 B1g   1  3d2-         0.131794     1.000000
    2.4 B1g   1  3d2-         0.329486     1.000000
    3.4 B1g   1  3d2-         1.141611     1.000000
    1.5 B1u   1  2pz          0.029281     0.001787
                              0.058547     0.050426
                              0.117063     0.191634
                              0.234064     0.302667
                              0.468003     0.289868
                              0.935757     0.210979
                              1.871016     0.112024
                              3.741035     0.054425
                              7.480076     0.021931
    2.5 B1u   1  2pz          0.050709     1.000000
    3.5 B1u   1  2pz          0.126772     1.000000
    4.5 B1u   1  2pz          0.376742     1.000000
    5.5 B1u   1  4f0          0.309394     1.000000
    6.5 B1u   1  4f2+         0.309394     1.000000
    7.5 B1u   1  4f0          0.773485     1.000000
    8.5 B1u   1  4f2+         0.773485     1.000000
    1.6 B2g   1  3d1+         0.131794     1.000000
    2.6 B2g   1  3d1+         0.329486     1.000000
    3.6 B2g   1  3d1+         1.141611     1.000000
    1.7 B3g   1  3d1-         0.131794     1.000000
    2.7 B3g   1  3d1-         0.329486     1.000000
    3.7 B3g   1  3d1-         1.141611     1.000000
    1.8 Au    1  4f2-         0.309394     1.000000
    2.8 Au    1  4f2-         0.773485     1.000000

 NUCLEAR CHARGE:                    4
 NUMBER OF PRIMITIVE AOS:          86
 NUMBER OF SYMMETRY AOS:           77
 NUMBER OF CONTRACTIONS:           45   (  10Ag  +   8B3u +   8B2u +   3B1g +   8B1u +   3B2g +   3B3g +   2Au  )
 NUMBER OF CORE ORBITALS:           0   (   0Ag  +   0B3u +   0B2u +   0B1g +   0B1u +   0B2g +   0B3g +   0Au  )
 NUMBER OF VALENCE ORBITALS:        4   (   1Ag  +   1B3u +   1B2u +   0B1g +   1B1u +   0B2g +   0B3g +   0Au  )


 NUCLEAR REPULSION ENERGY    0.00000000

 EXTRA SYMMETRY OF AOS IN SYMMETRY 1:   1 1 1 1 2 3 2 3 2 3
 EXTRA SYMMETRY OF AOS IN SYMMETRY 2:   1 1 1 1 2 3 2 3
 EXTRA SYMMETRY OF AOS IN SYMMETRY 3:   1 1 1 1 2 3 2 3
 EXTRA SYMMETRY OF AOS IN SYMMETRY 5:   1 1 1 1 2 3 2 3

 Eigenvalues of metric

         1 0.152E-01 0.150E+00 0.201E+00 0.201E+00 0.755E+00 0.831E+00 0.831E+00 0.197E+01
         2 0.372E-01 0.119E+00 0.367E+00 0.367E+00 0.810E+00 0.163E+01 0.163E+01 0.303E+01
         3 0.372E-01 0.119E+00 0.367E+00 0.367E+00 0.810E+00 0.163E+01 0.163E+01 0.303E+01
         4 0.201E+00 0.831E+00 0.197E+01
         5 0.372E-01 0.119E+00 0.367E+00 0.367E+00 0.810E+00 0.163E+01 0.163E+01 0.303E+01
         6 0.201E+00 0.831E+00 0.197E+01
         7 0.201E+00 0.831E+00 0.197E+01
         8 0.367E+00 0.163E+01


 Contracted 2-electron integrals neglected if value below      1.0D-12
 AO integral compression algorithm  1   Integral accuracy      1.0D-12

     1.049 MB (compressed) written to integral file ( 96.5%)


 NUMBER OF SORTED TWO-ELECTRON INTEGRALS:      75808.     BUFFER LENGTH:  32768
 NUMBER OF SEGMENTS:   1  SEGMENT LENGTH:      75808      RECORD LENGTH: 524288

 Memory used in sort:       0.63 MW

 SORT1 READ      155797. AND WROTE       61548. INTEGRALS IN      1 RECORDS. CPU TIME:     0.00 SEC, REAL TIME:     0.02 SEC
 SORT2 READ       61548. AND WROTE       75808. INTEGRALS IN      4 RECORDS. CPU TIME:     0.03 SEC, REAL TIME:     0.04 SEC

 FILE SIZES:   FILE 1:    20.2 MBYTE,  FILE 4:     4.2 MBYTE,   TOTAL:     24.4 MBYTE

 OPERATOR DM      FOR CENTER  0  COORDINATES:    0.000000    0.000000    0.000000
 OPERATOR EKIN    FOR CENTER  0  COORDINATES:    0.000000    0.000000    0.000000
 OPERATOR POT     FOR CENTER  0  COORDINATES:    0.000000    0.000000    0.000000


 **********************************************************************************************************************************
 DATASETS  * FILE   NREC   LENGTH (MB)   RECORD NAMES
              1      20       19.61       500      610      700      900      950      970     1000      129      960     1100   
                                          VAR    BASINP    GEOM    SYMINP    ZMAT    AOBASIS   BASIS     P2S    ABASIS      S 
                                         1400     1410     1420     1200     1210     1080     1600     1650     1300     1700   
                                         EKIN       V       ECP      H0       H01     AOSYM     SMH    MOLCAS    ERIS     OPER   

 PROGRAMS   *        TOTAL       INT
 CPU TIMES  *         0.42      0.28
 REAL TIME  *         1.92 SEC
 DISK USED  *        24.67 MB      
 **********************************************************************************************************************************


 PROGRAM * RHF-SCF (OPEN SHELL)       Authors: W. Meyer, H.-J. Werner


 NUMBER OF ELECTRONS:       3+    1-    SPACE SYMMETRY=6    SPIN SYMMETRY: Triplet 
 CONVERGENCE THRESHOLDS:    1.00E-05 (Density)    1.00E-07 (Energy)
 MAX. NUMBER OF ITERATIONS:       60
 INTERPOLATION TYPE:            DIIS
 INTERPOLATION STEPS:              2 (START)      1 (STEP)
 LEVEL SHIFTS:                 -0.60 (CLOSED) -0.30 (OPEN) 

 Number of closed-shell orbitals:    1 (   1   0   0   0   0   0   0   0 )
 Number of open-shell orbitals:      2 (   0   1   0   0   1   0   0   0 )



   Atom=C  basis=ECP2MWB_GUESS     lmin=0  lmax=1

 Orbital guess generated from atomic densities. Full valence occupancy:    1   1   1   0   1   0   0   0


 Molecular orbital dump at record        2100.2

 ITERATION    DDIFF          GRAD             ENERGY        2-EL.EN.            DIPOLE MOMENTS         DIIS   ORB.
    1      0.000D+00      0.000D+00        -5.29421061      5.554259    0.00000    0.00000    0.00000    0    start
    2      0.000D+00      0.227D-01        -5.32428478      5.924483    0.00000    0.00000    0.00000    1    diag,B
    3      0.284D-01      0.596D-02        -5.32830855      6.054557    0.00000    0.00000    0.00000    2    diag,B
    4      0.857D-02      0.218D-02        -5.32897296      6.094125    0.00000    0.00000    0.00000    3    diag,B
    5      0.345D-02      0.660D-03        -5.32902726      6.101053    0.00000    0.00000    0.00000    4    diag,B
    6      0.260D-02      0.773D-04        -5.32902783      6.101851    0.00000    0.00000    0.00000    5    diag,B
    7      0.149D-03      0.312D-04        -5.32902791      6.101676    0.00000    0.00000    0.00000    6    fixocc
    8      0.647D-04      0.568D-05        -5.32902791      6.101697    0.00000    0.00000    0.00000    7    diag,B
    9      0.117D-04      0.681D-06        -5.32902791      6.101708    0.00000    0.00000    0.00000    8    diag,B
   10      0.170D-05      0.202D-06        -5.32902791      6.101705    0.00000    0.00000    0.00000    0    orth

 Final alpha occupancy:   1   1   0   0   1   0   0   0
 Final beta  occupancy:   1   0   0   0   0   0   0   0

 !RHF STATE 1.6 Energy                 -5.329027909442
 Nuclear energy                         0.00000000
 One-electron energy                   -8.37988044
 Two-electron energy                    3.05085253
 Virial quotient                       -1.60958045
 !RHF STATE 1.6 Dipole moment           0.00000000     0.00000000     0.00000000
 Dipole moment /Debye                   0.00000000     0.00000000     0.00000000
 

 !RHF expec          <1.6|EKIN|1.6>     3.310817998052
 
 !RHF expec           <1.6|POT|1.6>    -3.134066559904

 ELECTRON ORBITALS
 =================


   Orb  Occ    Energy  Couls-En    Coefficients

                                   1 1s      1 1s      1 1s      1 1s      1 3d0     1 3d2+    1 3d0     1 3d2+    1 3d0     1 3d2+ 


   1.1   2    -0.7058   -2.9801  1.000057 -0.000032 -0.000072  0.000020  0.002067  0.003581  0.000814  0.001410  0.000597  0.001034

                                   1 2px     1 2px     1 2px     1 2px     1 4f1+    1 4f3+    1 4f1+    1 4f3+ 

   1.2   +    -0.4333   -2.3489  0.999930  0.000020  0.000072  0.000005  0.000002  0.000009 -0.000015 -0.000058

                                   1 2pz     1 2pz     1 2pz     1 2pz     1 4f0     1 4f2+    1 4f0     1 4f2+ 

   1.5   +    -0.4333   -2.3489  0.999930  0.000020  0.000072  0.000005  0.000006  0.000007 -0.000037 -0.000047

 HOMO      1.2    -0.433336 =     -11.7917eV
 LUMO      1.3     0.014544 =       0.3958eV
 LUMO-HOMO         0.447880 =      12.1874eV


 **********************************************************************************************************************************
 DATASETS  * FILE   NREC   LENGTH (MB)   RECORD NAMES
              1      20       19.61       500      610      700      900      950      970     1000      129      960     1100   
                                          VAR    BASINP    GEOM    SYMINP    ZMAT    AOBASIS   BASIS     P2S    ABASIS      S 
                                         1400     1410     1420     1200     1210     1080     1600     1650     1300     1700   
                                         EKIN       V       ECP      H0       H01     AOSYM     SMH    MOLCAS    ERIS     OPER   

              2       4        2.76       700     1000      520     2100   
                                         GEOM     BASIS   MCVARS     RHF  

 PROGRAMS   *        TOTAL        HF       INT
 CPU TIMES  *         0.48      0.06      0.28
 REAL TIME  *         2.11 SEC
 DISK USED  *        24.67 MB      
 **********************************************************************************************************************************
 SETTING SCF(I)         =        -5.32902791  AU                              
 SETTING _CC_NORM_MAX   =         2.00000000                                  


 PROGRAM * CCSD (Restricted open-shell coupled cluster)     Authors: C. Hampel, H.-J. Werner, 1991, M. Deegan, P.J. Knowles, 1992


 Convergence thresholds:  THRVAR = 1.00D-08  THRDEN = 1.00D-06

 CCSD(T)     terms to be evaluated (factor= 1.000)


 Number of closed-shell orbitals:   1 (   1   0   0   0   0   0   0   0 )
 Number of active  orbitals:        2 (   0   1   0   0   1   0   0   0 )
 Number of external orbitals:      42 (   9   7   8   3   7   3   3   2 )

 Memory could be reduced to 0.39 Mwords without degradation in triples

 Number of N-1 electron functions:               4
 Number of N-2 electron functions:               6
 Number of singly external CSFs:                34
 Number of doubly external CSFs:              1176
 Total number of CSFs:                        1210

 Molecular orbitals read from record     2100.2  Type=RHF/CANONICAL (state 1.6)

 Integral transformation finished. Total CPU:   0.00 sec, npass=  1  Memory used:   0.08 MW

 Starting RMP2 calculation

 Wavefunction is spin-projected

 ITER.      SQ.NORM     CORR.ENERGY   TOTAL ENERGY   ENERGY CHANGE        DEN1      VAR(S)    VAR(P)  DIIS     TIME
   1      1.02917155    -0.07561912    -5.40464703    -0.07561912    -0.00030641  0.57D-05  0.14D-03  1  1     0.00
   2      1.02952670    -0.07595413    -5.40498204    -0.00033501    -0.00000051  0.47D-08  0.24D-06  2  2     0.01
   3      1.02953512    -0.07595907    -5.40498698    -0.00000494    -0.00000000  0.11D-10  0.62D-09  3  3     0.01
   4      1.02953517    -0.07595909    -5.40498699    -0.00000001    -0.00000000  0.27D-13  0.11D-11  4  4     0.01

 Norm of t1 vector:      0.04018628      S-energy:    -0.00305699      T1 diagnostic:  0.00102739
 Norm of t2 vector:      0.16709349      P-energy:    -0.07290209
                                         Alpha-Beta:  -0.05993399
                                         Alpha-Alpha: -0.01296810
                                         Beta-Beta:    0.00000000

 Spin contamination <S**2-Sz**2-Sz>     0.00000000
  Reference energy                     -5.329027909442
  RHF-RMP2 correlation energy          -0.075959085339
 !RHF-RMP2 energy                      -5.404986994780
 (NB above energy spin projected)

 Starting RCCSD calculation

 ITER.      SQ.NORM     CORR.ENERGY   TOTAL ENERGY   ENERGY CHANGE        DEN1      VAR(S)    VAR(P)  DIIS     TIME
   1      1.04283602    -0.08825935    -5.41728726    -0.08825935    -0.00544499  0.25D-03  0.23D-02  1  1     0.01
   2      1.05385648    -0.09519512    -5.42422303    -0.00693577    -0.00040401  0.16D-04  0.18D-03  2  2     0.02
   3      1.05796483    -0.09668258    -5.42571049    -0.00148746    -0.00002552  0.12D-05  0.11D-04  3  3     0.02
   4      1.05895203    -0.09699697    -5.42602488    -0.00031439    -0.00000102  0.15D-06  0.39D-06  4  4     0.02
   5      1.05894077    -0.09697604    -5.42600395     0.00002092    -0.00000004  0.44D-08  0.15D-07  5  5     0.02
   6      1.05895772    -0.09698525    -5.42601316    -0.00000921    -0.00000000  0.27D-09  0.72D-09  6  6     0.02
   7      1.05895361    -0.09698321    -5.42601112     0.00000204    -0.00000000  0.11D-10  0.59D-10  6  1     0.03
   8      1.05895358    -0.09698321    -5.42601112    -0.00000000    -0.00000000  0.48D-12  0.27D-11  6  3     0.03

 Norm of t1 vector:      0.05854871      S-energy:    -0.00403548      T1 diagnostic:  0.00735883
                                                                       D1 diagnostic:  0.01417125
 Norm of t2 vector:      0.23563877      P-energy:    -0.09294773
                                         Alpha-Beta:  -0.07883536
                                         Alpha-Alpha: -0.01411237
                                         Beta-Beta:    0.00000000

 Doubles amplitudes (print threshold =  0.500E-01):

         I         J         SYM. A    SYM. B    A         B      T(IJ, AB) [Alpha-Beta]

         1         1         3         3         1         1     -0.09506907
         1         1         3         3         1         2      0.05570468
         1         1         3         3         2         1      0.05570468

 Spin contamination <S**2-Sz**2-Sz>     0.00000000

 Memory could be reduced to 0.40 Mwords without degradation in triples
 

 RESULTS
 =======

  Reference energy                     -5.329027909442
  RCCSD singles energy                 -0.004035482304
  RCCSD pair energy                    -0.092947726259
  RCCSD correlation energy             -0.096983208563
  Triples (T) contribution             -0.002489427449
  Total correlation energy             -0.099472636012
 
  RHF-RCCSD energy                     -5.426011118005
  RHF-RCCSD[T] energy                  -5.428456898226
  RHF-RCCSD-T energy                   -5.428504403922
 !RHF-RCCSD(T) energy                  -5.428500545454

 Program statistics:

 Available memory in ccsd:               511999798
 Min. memory needed in ccsd:                 12969
 Max. memory used in ccsd:                   13668
 Max. memory used in cckext:                 43150 ( 8 integral passes)
 Max. memory used in cckint:                 82059 ( 1 integral passes)



 **********************************************************************************************************************************
 DATASETS  * FILE   NREC   LENGTH (MB)   RECORD NAMES
              1      20       19.61       500      610      700      900      950      970     1000      129      960     1100   
                                          VAR    BASINP    GEOM    SYMINP    ZMAT    AOBASIS   BASIS     P2S    ABASIS      S 
                                         1400     1410     1420     1200     1210     1080     1600     1650     1300     1700   
                                         EKIN       V       ECP      H0       H01     AOSYM     SMH    MOLCAS    ERIS     OPER   

              2       4        2.76       700     1000      520     2100   
                                         GEOM     BASIS   MCVARS     RHF  

 PROGRAMS   *        TOTAL  RCCSD(T)        HF       INT
 CPU TIMES  *         0.55      0.05      0.06      0.28
 REAL TIME  *         2.81 SEC
 DISK USED  *        24.67 MB      
 **********************************************************************************************************************************
 SETTING POSTHF(I)      =        -5.42850055  AU                              
                                                                                                                                                                                                                                                                

       SCF           POSTHF       EKIN          POT
    -5.32902791   -5.42850055   3.31081800   -3.13406656
                                                  

 RCCSD(T)/USERDEF energy=     -5.428500545454

        RCCSD(T)        HF-SCF  
     -5.42850055     -5.32902791
 **********************************************************************************************************************************
 Variable memory released
