
 Primary working directories    : /global/cscratch1/sd/aannabe
 Secondary working directories  : /global/cscratch1/sd/aannabe
 Wavefunction directory         : /global/homes/a/aannabe/wfu/
 Main file repository           : /global/cscratch1/sd/aannabe/

 SHA1      : 2873118e99aab1bc19f5b6fc1784693c06d15c95
 NAME      : 2015.1.8
 ARCHNAME  : linux/x86_64
 FC        : /opt/cray/pe/craype/2.5.5/bin/ftn
 BLASLIB   : -Wl,-_start-group /opt/intel/compilers_and_libraries_2016.3.210/linux/mkl/lib/intel64/libmkl_intel_ilp64.a /opt/intel/compilers_and_libraries_2016.3.210/linux/mkl/lib/intel64/libmkl_intel_thread.a /opt/intel/compilers_and_libraries_2016.3.210/linux/mkl/lib/intel64/libmkl_core.a -Wl,-_end-group
 id        : lbl

 Nodes     nprocs
 nid00502     1

 Using customized tuning parameters: mindgm=8; mindgv=16; mindgc=4; mindgr=1; noblas=0; minvec=7
 default implementation of scratch files=df  

 ***,C
 memory,512,m
 gthresh,twoint=1.e-12
 
 gprint,basis,orbitals
 gexpec,ekin,pot
 
 angstrom
 geometry={
 1                                                                               ! Number of atoms
 C 0.0 0.0 0.0
 }
 
 basis={
 Including file /global/homes/a/aannabe/docs/totals_bfd/pps/C.pp
 Including file /global/homes/a/aannabe/docs/totals_bfd/basis/aug-cc-pVnZ/C_5z.basis
 }
 
 {hf
 wf,4,6,2
 occ,1,1,0,0,1,0,0,0
                                                                                 !open,1.2,1.5
 closed,1,0,0,0,0,0,0,0
                                                                                 !sym,
 }
 scf(i)=energy
 
 _CC_NORM_MAX=2.0
 {rccsd(t)
 maxit,100
 core
 }
 posthf(i)=energy
 
 table,scf,posthf,ekin,pot
 save,5.csv,new
 
 

 Variables initialized (889), CPU time= 0.01 sec
 Commands  initialized (702), CPU time= 0.01 sec, 572 directives.
 Default parameters read. Elapsed time= 0.30 sec

 Checking input...
 Passed
1


                                         ***  PROGRAM SYSTEM MOLPRO  ***
                                       Copyright, TTI GmbH Stuttgart, 2015
                                    Version 2015.1 linked Sep  7 2016 23:09:38


 **********************************************************************************************************************************
 LABEL *   C                                                                             
  64 bit serial version                                                                  DATE: 19-Jun-18          TIME: 15:13:43  
 **********************************************************************************************************************************

 SHA1:             2873118e99aab1bc19f5b6fc1784693c06d15c95
 **********************************************************************************************************************************

 THRESHOLDS:

 ZERO    =  1.00D-12  ONEINT  =  1.00D-12  TWOINT  =  1.00D-12  PREFAC  =  1.00D-14  LOCALI  =  1.00D-09  EORDER  =  1.00D-04
 ENERGY  =  0.00D+00  ETEST   =  0.00D+00  EDENS   =  0.00D+00  THRDEDEF=  1.00D-06  GRADIENT=  1.00D-02  STEP    =  1.00D-03
 ORBITAL =  1.00D-05  CIVEC   =  1.00D-05  COEFF   =  1.00D-04  PRINTCI =  5.00D-02  PUNCHCI =  9.90D+01  OPTGRAD =  3.00D-04
 OPTENERG=  1.00D-06  OPTSTEP =  3.00D-04  THRGRAD =  1.00D-10  COMPRESS=  1.00D-11  VARMIN  =  1.00D-07  VARMAX  =  1.00D-03
 THRDOUB =  0.00D+00  THRDIV  =  1.00D-05  THRRED  =  1.00D-07  THRPSP  =  1.00D+00  THRDC   =  1.00D-10  THRCS   =  1.00D-10
 THRNRM  =  1.00D-08  THREQ   =  0.00D+00  THRDE   =  1.00D+00  THRREF  =  1.00D-05  SPARFAC =  1.00D+00  THRDLP  =  1.00D-07
 THRDIA  =  1.00D-10  THRDLS  =  1.00D-07  THRGPS  =  0.00D+00  THRKEX  =  0.00D+00  THRDIS  =  2.00D-01  THRVAR  =  1.00D-10
 THRLOC  =  1.00D-06  THRGAP  =  1.00D-06  THRLOCT = -1.00D+00  THRGAPT = -1.00D+00  THRORB  =  1.00D-06  THRMLTP =  0.00D+00
 THRCPQCI=  1.00D-10  KEXTA   =  0.00D+00  THRCOARS=  0.00D+00  SYMTOL  =  1.00D-06  GRADTOL =  1.00D-06  THROVL  =  1.00D-08
 THRORTH =  1.00D-08  GRID    =  1.00D-06  GRIDMAX =  1.00D-03  DTMAX   =  0.00D+00  THROCCDE=  1.00D-01  THROCCDE=  1.00D-01



 ZUNIT=ANG
 

Geometry recognized as XYZ


 Variable memory set to  512000000 words,  buffer space   230000 words

 SETTING BASIS          =    USERDEF


 Recomputing integrals since basis changed


 Using spherical harmonics



 PROGRAM * SEWARD (Integral evaluation for generally contracted gaussian basis sets)     Author: Roland Lindh, 1990

 Geometry written to block  1 of record 700

 Orientation using atomic masses  
 Molecule type: Atom
 Symmetry elements: X,Y,Z
 Rotational constants:       0.0000000      0.0000000      0.0000000 GHz  (calculated with average atomic masses)

 Point group  D2h 



 ATOMIC COORDINATES

 NR  ATOM    CHARGE       X              Y              Z

   1  C       4.00    0.000000000    0.000000000    0.000000000


          C   CORE POTENTIAL

          p POTENTIAL

 POWERS             1              3              2
 EXPONENTIALS   8.359738       4.483619       3.938313    
 COEFFICIENTS   4.000000       33.43895      -19.17537    

          s - p POTENTIAL

 POWERS             2
 EXPONENTIALS   5.029916    
 COEFFICIENTS   22.55164    


 BASIS DATA

   Nr Sym  Nuc  Type         Exponents   Contraction coefficients

    1.1 Ag    1  1s           0.051344     0.013991
                              0.102619     0.169852
                              0.205100     0.397529
                              0.409924     0.380369
                              0.819297     0.180113
                              1.637494    -0.033512
                              3.272791    -0.121499
                              6.541187     0.015176
                             13.073594    -0.000705
    2.1 Ag    1  1s           0.039321     1.000000
    3.1 Ag    1  1s           0.098302     1.000000
    4.1 Ag    1  1s           0.232034     1.000000
    5.1 Ag    1  1s           0.744448     1.000000
    6.1 Ag    1  1s           1.009914     1.000000
    7.1 Ag    1  3d0          0.082648     1.000000
    8.1 Ag    1  3d2+         0.082648     1.000000
    9.1 Ag    1  3d0          0.206619     1.000000
   10.1 Ag    1  3d2+         0.206619     1.000000
   11.1 Ag    1  3d0          0.606933     1.000000
   12.1 Ag    1  3d2+         0.606933     1.000000
   13.1 Ag    1  3d0          1.001526     1.000000
   14.1 Ag    1  3d2+         1.001526     1.000000
   15.1 Ag    1  3d0          1.504882     1.000000
   16.1 Ag    1  3d2+         1.504882     1.000000
   17.1 Ag    1  5g0          0.319059     1.000000
   18.1 Ag    1  5g4+         0.319059     1.000000
   19.1 Ag    1  5g2+         0.319059     1.000000
   20.1 Ag    1  5g0          0.797648     1.000000
   21.1 Ag    1  5g4+         0.797648     1.000000
   22.1 Ag    1  5g2+         0.797648     1.000000
   23.1 Ag    1  5g0          1.401343     1.000000
   24.1 Ag    1  5g4+         1.401343     1.000000
   25.1 Ag    1  5g2+         1.401343     1.000000
    1.2 B3u   1  2px          0.029281     0.001787
                              0.058547     0.050426
                              0.117063     0.191634
                              0.234064     0.302667
                              0.468003     0.289868
                              0.935757     0.210979
                              1.871016     0.112024
                              3.741035     0.054425
                              7.480076     0.021931
    2.2 B3u   1  2px          0.033619     1.000000
    3.2 B3u   1  2px          0.084047     1.000000
    4.2 B3u   1  2px          0.216618     1.000000
    5.2 B3u   1  2px          0.576869     1.000000
    6.2 B3u   1  2px          1.006252     1.000000
    7.2 B3u   1  4f1+         0.160229     1.000000
    8.2 B3u   1  4f3+         0.160229     1.000000
    9.2 B3u   1  4f1+         0.400573     1.000000
   10.2 B3u   1  4f3+         0.400573     1.000000
   11.2 B3u   1  4f1+         1.099564     1.000000
   12.2 B3u   1  4f3+         1.099564     1.000000
   13.2 B3u   1  4f1+         1.501091     1.000000
   14.2 B3u   1  4f3+         1.501091     1.000000
   15.2 B3u   1  6h1+         0.400681     1.000000
   16.2 B3u   1  6h3+         0.400681     1.000000
   17.2 B3u   1  6h5+         0.400681     1.000000
   18.2 B3u   1  6h1+         1.001703     1.000000
   19.2 B3u   1  6h3+         1.001703     1.000000
   20.2 B3u   1  6h5+         1.001703     1.000000
    1.3 B2u   1  2py          0.029281     0.001787
                              0.058547     0.050426
                              0.117063     0.191634
                              0.234064     0.302667
                              0.468003     0.289868
                              0.935757     0.210979
                              1.871016     0.112024
                              3.741035     0.054425
                              7.480076     0.021931
    2.3 B2u   1  2py          0.033619     1.000000
    3.3 B2u   1  2py          0.084047     1.000000
    4.3 B2u   1  2py          0.216618     1.000000
    5.3 B2u   1  2py          0.576869     1.000000
    6.3 B2u   1  2py          1.006252     1.000000
    7.3 B2u   1  4f1-         0.160229     1.000000
    8.3 B2u   1  4f3-         0.160229     1.000000
    9.3 B2u   1  4f1-         0.400573     1.000000
   10.3 B2u   1  4f3-         0.400573     1.000000
   11.3 B2u   1  4f1-         1.099564     1.000000
   12.3 B2u   1  4f3-         1.099564     1.000000
   13.3 B2u   1  4f1-         1.501091     1.000000
   14.3 B2u   1  4f3-         1.501091     1.000000
   15.3 B2u   1  6h1-         0.400681     1.000000
   16.3 B2u   1  6h3-         0.400681     1.000000
   17.3 B2u   1  6h5-         0.400681     1.000000
   18.3 B2u   1  6h1-         1.001703     1.000000
   19.3 B2u   1  6h3-         1.001703     1.000000
   20.3 B2u   1  6h5-         1.001703     1.000000
    1.4 B1g   1  3d2-         0.082648     1.000000
    2.4 B1g   1  3d2-         0.206619     1.000000
    3.4 B1g   1  3d2-         0.606933     1.000000
    4.4 B1g   1  3d2-         1.001526     1.000000
    5.4 B1g   1  3d2-         1.504882     1.000000
    6.4 B1g   1  5g2-         0.319059     1.000000
    7.4 B1g   1  5g4-         0.319059     1.000000
    8.4 B1g   1  5g2-         0.797648     1.000000
    9.4 B1g   1  5g4-         0.797648     1.000000
   10.4 B1g   1  5g2-         1.401343     1.000000
   11.4 B1g   1  5g4-         1.401343     1.000000
    1.5 B1u   1  2pz          0.029281     0.001787
                              0.058547     0.050426
                              0.117063     0.191634
                              0.234064     0.302667
                              0.468003     0.289868
                              0.935757     0.210979
                              1.871016     0.112024
                              3.741035     0.054425
                              7.480076     0.021931
    2.5 B1u   1  2pz          0.033619     1.000000
    3.5 B1u   1  2pz          0.084047     1.000000
    4.5 B1u   1  2pz          0.216618     1.000000
    5.5 B1u   1  2pz          0.576869     1.000000
    6.5 B1u   1  2pz          1.006252     1.000000
    7.5 B1u   1  4f0          0.160229     1.000000
    8.5 B1u   1  4f2+         0.160229     1.000000
    9.5 B1u   1  4f0          0.400573     1.000000
   10.5 B1u   1  4f2+         0.400573     1.000000
   11.5 B1u   1  4f0          1.099564     1.000000
   12.5 B1u   1  4f2+         1.099564     1.000000
   13.5 B1u   1  4f0          1.501091     1.000000
   14.5 B1u   1  4f2+         1.501091     1.000000
   15.5 B1u   1  6h2+         0.400681     1.000000
   16.5 B1u   1  6h4+         0.400681     1.000000
   17.5 B1u   1  6h0          0.400681     1.000000
   18.5 B1u   1  6h2+         1.001703     1.000000
   19.5 B1u   1  6h4+         1.001703     1.000000
   20.5 B1u   1  6h0          1.001703     1.000000
    1.6 B2g   1  3d1+         0.082648     1.000000
    2.6 B2g   1  3d1+         0.206619     1.000000
    3.6 B2g   1  3d1+         0.606933     1.000000
    4.6 B2g   1  3d1+         1.001526     1.000000
    5.6 B2g   1  3d1+         1.504882     1.000000
    6.6 B2g   1  5g1+         0.319059     1.000000
    7.6 B2g   1  5g3+         0.319059     1.000000
    8.6 B2g   1  5g1+         0.797648     1.000000
    9.6 B2g   1  5g3+         0.797648     1.000000
   10.6 B2g   1  5g1+         1.401343     1.000000
   11.6 B2g   1  5g3+         1.401343     1.000000
    1.7 B3g   1  3d1-         0.082648     1.000000
    2.7 B3g   1  3d1-         0.206619     1.000000
    3.7 B3g   1  3d1-         0.606933     1.000000
    4.7 B3g   1  3d1-         1.001526     1.000000
    5.7 B3g   1  3d1-         1.504882     1.000000
    6.7 B3g   1  5g1-         0.319059     1.000000
    7.7 B3g   1  5g3-         0.319059     1.000000
    8.7 B3g   1  5g1-         0.797648     1.000000
    9.7 B3g   1  5g3-         0.797648     1.000000
   10.7 B3g   1  5g1-         1.401343     1.000000
   11.7 B3g   1  5g3-         1.401343     1.000000
    1.8 Au    1  4f2-         0.160229     1.000000
    2.8 Au    1  4f2-         0.400573     1.000000
    3.8 Au    1  4f2-         1.099564     1.000000
    4.8 Au    1  4f2-         1.501091     1.000000
    5.8 Au    1  6h4-         0.400681     1.000000
    6.8 Au    1  6h2-         0.400681     1.000000
    7.8 Au    1  6h4-         1.001703     1.000000
    8.8 Au    1  6h2-         1.001703     1.000000

 NUCLEAR CHARGE:                    4
 NUMBER OF PRIMITIVE AOS:         213
 NUMBER OF SYMMETRY AOS:          158
 NUMBER OF CONTRACTIONS:          126   (  25Ag  +  20B3u +  20B2u +  11B1g +  20B1u +  11B2g +  11B3g +   8Au  )
 NUMBER OF CORE ORBITALS:           0   (   0Ag  +   0B3u +   0B2u +   0B1g +   0B1u +   0B2g +   0B3g +   0Au  )
 NUMBER OF VALENCE ORBITALS:        4   (   1Ag  +   1B3u +   1B2u +   0B1g +   1B1u +   0B2g +   0B3g +   0Au  )


 NUCLEAR REPULSION ENERGY    0.00000000

 EXTRA SYMMETRY OF AOS IN SYMMETRY 1:   1 1 1 1 1 1 2 3 2 3   2 3 2 3 2 3 4 5 6 4   5 6 4 5 6
 EXTRA SYMMETRY OF AOS IN SYMMETRY 2:   1 1 1 1 1 1 2 3 2 3   2 3 2 3 4 5 6 4 5 6
 EXTRA SYMMETRY OF AOS IN SYMMETRY 3:   1 1 1 1 1 1 2 3 2 3   2 3 2 3 4 5 6 4 5 6
 EXTRA SYMMETRY OF AOS IN SYMMETRY 4:   1 1 1 1 1 2 3 2 3 2   3
 EXTRA SYMMETRY OF AOS IN SYMMETRY 5:   1 1 1 1 1 1 2 3 2 3   2 3 2 3 4 5 6 4 5 6
 EXTRA SYMMETRY OF AOS IN SYMMETRY 6:   1 1 1 1 1 2 3 2 3 2   3
 EXTRA SYMMETRY OF AOS IN SYMMETRY 7:   1 1 1 1 1 2 3 2 3 2   3
 EXTRA SYMMETRY OF AOS IN SYMMETRY 8:   1 1 1 1 2 3 2 3

 Eigenvalues of metric

         1 0.360E-03 0.551E-02 0.674E-02 0.674E-02 0.316E-01 0.113E+00 0.113E+00 0.118E+00
         2 0.400E-02 0.226E-01 0.263E-01 0.263E-01 0.900E-01 0.291E+00 0.291E+00 0.429E+00
         3 0.400E-02 0.226E-01 0.263E-01 0.263E-01 0.900E-01 0.291E+00 0.291E+00 0.429E+00
         4 0.674E-02 0.113E+00 0.118E+00 0.118E+00 0.376E+00 0.766E+00 0.766E+00 0.145E+01
         5 0.400E-02 0.226E-01 0.263E-01 0.263E-01 0.900E-01 0.291E+00 0.291E+00 0.429E+00
         6 0.674E-02 0.113E+00 0.118E+00 0.118E+00 0.376E+00 0.766E+00 0.766E+00 0.145E+01
         7 0.674E-02 0.113E+00 0.118E+00 0.118E+00 0.376E+00 0.766E+00 0.766E+00 0.145E+01
         8 0.263E-01 0.291E+00 0.483E+00 0.483E+00 0.122E+01 0.152E+01 0.152E+01 0.247E+01


 Contracted 2-electron integrals neglected if value below      1.0D-12
 AO integral compression algorithm  1   Integral accuracy      1.0D-12

     31.982 MB (compressed) written to integral file ( 56.9%)


 NUMBER OF SORTED TWO-ELECTRON INTEGRALS:    4156552.     BUFFER LENGTH:  32768
 NUMBER OF SEGMENTS:   1  SEGMENT LENGTH:    4156552      RECORD LENGTH: 524288

 Memory used in sort:       4.71 MW

 SORT1 READ     6989366. AND WROTE     2907704. INTEGRALS IN      9 RECORDS. CPU TIME:     0.28 SEC, REAL TIME:     0.40 SEC
 SORT2 READ     2907704. AND WROTE     4156552. INTEGRALS IN    122 RECORDS. CPU TIME:     0.29 SEC, REAL TIME:     0.48 SEC

 FILE SIZES:   FILE 1:    51.4 MBYTE,  FILE 4:    37.8 MBYTE,   TOTAL:     89.2 MBYTE

 OPERATOR DM      FOR CENTER  0  COORDINATES:    0.000000    0.000000    0.000000
 OPERATOR EKIN    FOR CENTER  0  COORDINATES:    0.000000    0.000000    0.000000
 OPERATOR POT     FOR CENTER  0  COORDINATES:    0.000000    0.000000    0.000000


 **********************************************************************************************************************************
 DATASETS  * FILE   NREC   LENGTH (MB)   RECORD NAMES
              1      20       38.57       500      610      700      900      950      970     1000      129      960     1100   
                                          VAR    BASINP    GEOM    SYMINP    ZMAT    AOBASIS   BASIS     P2S    ABASIS      S 
                                         1400     1410     1420     1200     1210     1080     1600     1650     1300     1700   
                                         EKIN       V       ECP      H0       H01     AOSYM     SMH    MOLCAS    ERIS     OPER   

 PROGRAMS   *        TOTAL       INT
 CPU TIMES  *         2.51      2.38
 REAL TIME  *         4.44 SEC
 DISK USED  *        89.53 MB      
 **********************************************************************************************************************************


 PROGRAM * RHF-SCF (OPEN SHELL)       Authors: W. Meyer, H.-J. Werner


 NUMBER OF ELECTRONS:       3+    1-    SPACE SYMMETRY=6    SPIN SYMMETRY: Triplet 
 CONVERGENCE THRESHOLDS:    1.00E-05 (Density)    1.00E-07 (Energy)
 MAX. NUMBER OF ITERATIONS:       60
 INTERPOLATION TYPE:            DIIS
 INTERPOLATION STEPS:              2 (START)      1 (STEP)
 LEVEL SHIFTS:                 -0.60 (CLOSED) -0.30 (OPEN) 

 Number of closed-shell orbitals:    1 (   1   0   0   0   0   0   0   0 )
 Number of open-shell orbitals:      2 (   0   1   0   0   1   0   0   0 )



   Atom=C  basis=ECP2MWB_GUESS     lmin=0  lmax=1

 Orbital guess generated from atomic densities. Full valence occupancy:    1   1   1   0   1   0   0   0


 Molecular orbital dump at record        2100.2

 ITERATION    DDIFF          GRAD             ENERGY        2-EL.EN.            DIPOLE MOMENTS         DIIS   ORB.
    1      0.000D+00      0.000D+00        -5.29372663      5.549467    0.00000    0.00000    0.00000    0    start
    2      0.000D+00      0.139D-01        -5.32415579      5.922647    0.00000    0.00000    0.00000    1    diag,B
    3      0.107D-01      0.366D-02        -5.32827819      6.053130    0.00000    0.00000    0.00000    2    diag,B
    4      0.292D-02      0.139D-02        -5.32898767      6.095410    0.00000    0.00000    0.00000    3    diag,B
    5      0.168D-02      0.353D-03        -5.32902983      6.100584    0.00000    0.00000    0.00000    4    diag,B
    6      0.541D-03      0.897D-04        -5.32903235      6.101787    0.00000    0.00000    0.00000    5    diag,B
    7      0.212D-03      0.185D-04        -5.32903241      6.101670    0.00000    0.00000    0.00000    6    fixocc
    8      0.512D-04      0.512D-05        -5.32903242      6.101702    0.00000    0.00000    0.00000    7    diag,B
    9      0.875D-05      0.120D-05        -5.32903242      6.101698    0.00000    0.00000    0.00000    0    orth

 Final alpha occupancy:   1   1   0   0   1   0   0   0
 Final beta  occupancy:   1   0   0   0   0   0   0   0

 !RHF STATE 1.6 Energy                 -5.329032415215
 Nuclear energy                         0.00000000
 One-electron energy                   -8.37988152
 Two-electron energy                    3.05084911
 Virial quotient                       -1.60956115
 !RHF STATE 1.6 Dipole moment           0.00000000     0.00000000     0.00000000
 Dipole moment /Debye                   0.00000000     0.00000000     0.00000000
 

 !RHF expec          <1.6|EKIN|1.6>     3.310860486483
 
 !RHF expec           <1.6|POT|1.6>    -3.134076166841

 ELECTRON ORBITALS
 =================


   Orb  Occ    Energy  Couls-En    Coefficients

                                   1 1s      1 1s      1 1s      1 1s      1 1s      1 1s      1 3d0     1 3d2+    1 3d0     1 3d2+ 
                                   1 3d0     1 3d2+    1 3d0     1 3d2+    1 3d0     1 3d2+    1 5g0     1 5g4+    1 5g2+    1 5g0  
                                   1 5g4+    1 5g2+    1 5g0     1 5g4+    1 5g2+ 

   1.1   2    -0.7058   -2.9801  1.000026  0.000007 -0.000111  0.000022  0.000059 -0.000029  0.000892  0.001545  0.001793  0.003105
                                 0.001130  0.001957 -0.001584 -0.002743  0.001395  0.002417 -0.000014 -0.000028 -0.000021 -0.000002
                                -0.000004 -0.000003 -0.000002 -0.000004 -0.000003

                                   1 2px     1 2px     1 2px     1 2px     1 2px     1 2px     1 4f1+    1 4f3+    1 4f1+    1 4f3+ 
                                   1 4f1+    1 4f3+    1 4f1+    1 4f3+    1 6h1+    1 6h3+    1 6h5+    1 6h1+    1 6h3+    1 6h5+ 


   1.2   +    -0.4333   -2.3489  0.999918 -0.000011  0.000067  0.000078 -0.000080  0.000058  0.000013  0.000051 -0.000011 -0.000042
                                -0.000010 -0.000038  0.000001  0.000004 -0.000000 -0.000000 -0.000000 -0.000000 -0.000000 -0.000000

                                   1 2pz     1 2pz     1 2pz     1 2pz     1 2pz     1 2pz     1 4f0     1 4f2+    1 4f0     1 4f2+ 
                                   1 4f0     1 4f2+    1 4f0     1 4f2+    1 6h2+    1 6h4+    1 6h0     1 6h2+    1 6h4+    1 6h0  


   1.5   +    -0.4333   -2.3489  0.999918 -0.000011  0.000067  0.000078 -0.000080  0.000058  0.000032  0.000042 -0.000027 -0.000034
                                -0.000024 -0.000031  0.000002  0.000003 -0.000000 -0.000000 -0.000000 -0.000000 -0.000000 -0.000000

 HOMO      1.2    -0.433338 =     -11.7917eV
 LUMO      1.3     0.011994 =       0.3264eV
 LUMO-HOMO         0.445332 =      12.1181eV


 **********************************************************************************************************************************
 DATASETS  * FILE   NREC   LENGTH (MB)   RECORD NAMES
              1      20       38.57       500      610      700      900      950      970     1000      129      960     1100   
                                          VAR    BASINP    GEOM    SYMINP    ZMAT    AOBASIS   BASIS     P2S    ABASIS      S 
                                         1400     1410     1420     1200     1210     1080     1600     1650     1300     1700   
                                         EKIN       V       ECP      H0       H01     AOSYM     SMH    MOLCAS    ERIS     OPER   

              2       4        2.83       700     1000      520     2100   
                                         GEOM     BASIS   MCVARS     RHF  

 PROGRAMS   *        TOTAL        HF       INT
 CPU TIMES  *         2.86      0.35      2.38
 REAL TIME  *         4.99 SEC
 DISK USED  *        89.53 MB      
 **********************************************************************************************************************************
 SETTING SCF(I)         =        -5.32903242  AU                              
 SETTING _CC_NORM_MAX   =         2.00000000                                  


 PROGRAM * CCSD (Restricted open-shell coupled cluster)     Authors: C. Hampel, H.-J. Werner, 1991, M. Deegan, P.J. Knowles, 1992


 Convergence thresholds:  THRVAR = 1.00D-08  THRDEN = 1.00D-06

 CCSD(T)     terms to be evaluated (factor= 1.000)


 Number of closed-shell orbitals:   1 (   1   0   0   0   0   0   0   0 )
 Number of active  orbitals:        2 (   0   1   0   0   1   0   0   0 )
 Number of external orbitals:     123 (  24  19  20  11  19  11  11   8 )

 Memory could be reduced to 2.57 Mwords without degradation in triples

 Number of N-1 electron functions:               4
 Number of N-2 electron functions:               6
 Number of singly external CSFs:                88
 Number of doubly external CSFs:              9196
 Total number of CSFs:                        9284

 Molecular orbitals read from record     2100.2  Type=RHF/CANONICAL (state 1.6)

 Integral transformation finished. Total CPU:   0.08 sec, npass=  1  Memory used:   0.37 MW

 Starting RMP2 calculation

 Wavefunction is spin-projected

 ITER.      SQ.NORM     CORR.ENERGY   TOTAL ENERGY   ENERGY CHANGE        DEN1      VAR(S)    VAR(P)  DIIS     TIME
   1      1.02978570    -0.08194532    -5.41097773    -0.08194532    -0.00029747  0.57D-05  0.13D-03  1  1     0.08
   2      1.03013194    -0.08227001    -5.41130242    -0.00032469    -0.00000052  0.51D-08  0.24D-06  2  2     0.09
   3      1.03014076    -0.08227530    -5.41130772    -0.00000530    -0.00000000  0.12D-10  0.72D-09  3  3     0.09
   4      1.03014080    -0.08227531    -5.41130772    -0.00000000    -0.00000000  0.32D-13  0.20D-11  4  4     0.09

 Norm of t1 vector:      0.04030911      S-energy:    -0.00307376      T1 diagnostic:  0.00103279
 Norm of t2 vector:      0.16886674      P-energy:    -0.07920155
                                         Alpha-Beta:  -0.06553334
                                         Alpha-Alpha: -0.01366820
                                         Beta-Beta:    0.00000000

 Spin contamination <S**2-Sz**2-Sz>     0.00000000
  Reference energy                     -5.329032415215
  RHF-RMP2 correlation energy          -0.082275306136
 !RHF-RMP2 energy                      -5.411307721352
 (NB above energy spin projected)

 Starting RCCSD calculation

 ITER.      SQ.NORM     CORR.ENERGY   TOTAL ENERGY   ENERGY CHANGE        DEN1      VAR(S)    VAR(P)  DIIS     TIME
   1      1.04225971    -0.09245172    -5.42148413    -0.09245172    -0.00513120  0.26D-03  0.21D-02  1  1     0.20
   2      1.05294962    -0.09905809    -5.42809050    -0.00660637    -0.00037958  0.17D-04  0.17D-03  2  2     0.25
   3      1.05696226    -0.10054324    -5.42957565    -0.00148515    -0.00002574  0.15D-05  0.11D-04  3  3     0.31
   4      1.05776715    -0.10077563    -5.42980804    -0.00023239    -0.00000182  0.15D-06  0.72D-06  4  4     0.36
   5      1.05788619    -0.10080529    -5.42983770    -0.00002966    -0.00000009  0.13D-07  0.36D-07  5  5     0.41
   6      1.05788057    -0.10080194    -5.42983436     0.00000335    -0.00000000  0.40D-09  0.21D-08  6  6     0.46
   7      1.05788202    -0.10080285    -5.42983527    -0.00000091    -0.00000000  0.26D-10  0.24D-09  6  1     0.52

 Norm of t1 vector:      0.05802661      S-energy:    -0.00399388      T1 diagnostic:  0.00747878
                                                                       D1 diagnostic:  0.01429436
 Norm of t2 vector:      0.23348433      P-energy:    -0.09680897
                                         Alpha-Beta:  -0.08210754
                                         Alpha-Alpha: -0.01470143
                                         Beta-Beta:    0.00000000

 Doubles amplitudes (print threshold =  0.500E-01):

         I         J         SYM. A    SYM. B    A         B      T(IJ, AB) [Alpha-Beta]

         1         1         3         3         1         1     -0.08546353
         1         1         3         3         1         2      0.05165699
         1         1         3         3         2         1      0.05165699

 Spin contamination <S**2-Sz**2-Sz>     0.00000000

 Memory could be reduced to 2.64 Mwords without degradation in triples
 

 RESULTS
 =======

  Reference energy                     -5.329032415215
  RCCSD singles energy                 -0.003993880231
  RCCSD pair energy                    -0.096808973821
  RCCSD correlation energy             -0.100802854052
  Triples (T) contribution             -0.002794152079
  Total correlation energy             -0.103597006131
 
  RHF-RCCSD energy                     -5.429835269267
  RHF-RCCSD[T] energy                  -5.432584448339
  RHF-RCCSD-T energy                   -5.432632321936
 !RHF-RCCSD(T) energy                  -5.432629421346

 Program statistics:

 Available memory in ccsd:               511999798
 Min. memory needed in ccsd:                 88983
 Max. memory used in ccsd:                   94966
 Max. memory used in cckext:                110927 ( 7 integral passes)
 Max. memory used in cckint:                368868 ( 1 integral passes)



 **********************************************************************************************************************************
 DATASETS  * FILE   NREC   LENGTH (MB)   RECORD NAMES
              1      20       38.57       500      610      700      900      950      970     1000      129      960     1100   
                                          VAR    BASINP    GEOM    SYMINP    ZMAT    AOBASIS   BASIS     P2S    ABASIS      S 
                                         1400     1410     1420     1200     1210     1080     1600     1650     1300     1700   
                                         EKIN       V       ECP      H0       H01     AOSYM     SMH    MOLCAS    ERIS     OPER   

              2       4        2.83       700     1000      520     2100   
                                         GEOM     BASIS   MCVARS     RHF  

 PROGRAMS   *        TOTAL  RCCSD(T)        HF       INT
 CPU TIMES  *         3.54      0.68      0.35      2.38
 REAL TIME  *         6.24 SEC
 DISK USED  *        89.53 MB      
 **********************************************************************************************************************************
 SETTING POSTHF(I)      =        -5.43262942  AU                              
                                                                                                                                                                                                                                                                

       SCF           POSTHF       EKIN          POT
    -5.32903242   -5.43262942   3.31086049   -3.13407617
                                                  

 RCCSD(T)/USERDEF energy=     -5.432629421346

        RCCSD(T)        HF-SCF  
     -5.43262942     -5.32903242
 **********************************************************************************************************************************
 Variable memory released
