TACC:  Starting up job 2776231 
TACC:  Starting parallel tasks... 
  Input file(s): Si.log.qmc.in-wfj.xml 

=====================================================
                    QMCPACK 3.6.0

       (c) Copyright 2003-  QMCPACK developers

                    Please cite:
 J. Kim et al. J. Phys. Cond. Mat. 30 195901 (2018)
      https://doi.org/10.1088/1361-648X/aab9c3

  Git branch: develop
  Last git commit: 8025d469c3748fa6a35dc38bfa5b192a28e9e66e
  Last git commit date: Mon Jan 14 15:08:34 2019 -0600
  Last git commit subject: Merge pull request #1314 from prckent/update_citations
=====================================================
  Global options 

  MPI Nodes             = 1024
  MPI Nodes per group   = 1024
  MPI Group ID          = 0
  OMP 1st level threads = 1
  OMP nested threading disabled or only 1 thread on the 2nd level

  Precision used in this calculation, see definitions in the manual:
  Base precision      = double
  Full precision      = double

  Structure-of-arrays (SoA) optimization enabled

  Input XML = Si.log.qmc.in-wfj.xml

  Project = Si.log
  date    = 2019-01-16 15:56:47 CST
  host    = c402-002.stampede2.tacc.utexas.edu

 Random Number
 -------------
  Offset for the random number seeds based on time: 159

  Range of prime numbers to use as seeds over processors and threads = 947-9601


 Particle Set 
 ------------
  Name: ion0
  All the species have the same mass 1
  Particle set size: 1

 Particle Set 
 ------------
  Name: e
  All the species have the same mass 1
  Particle set size: 12

 Wavefunction setup: 
 ------------------- 
  Name: psi0
  LCAO: SoaAtomicBasisSet<MultiQuintic,0>

  Distance table for similar particles (A-A):
    source/target: e
    Using structure-of-arrays (SoA) data layout
    Distance computations use open boundary conditions in 3D.


  Distance table for dissimilar particles (A-B):
    source: ion0  target: e
    Using structure-of-arrays (SoA) data layout
    Distance computations use open boundary conditions in 3D.

Reading BasisSet from HDF5 file:Si.log.orbs.h5
<input node="atomicBasisSet" name="Gaussian" expandYlm="Gamess" angular="cartesian" elementType="Si" normalized="no" type="Numerical" expM="0" />
  AO BasisSet for Si
   Angular momentum expanded in cartesian functions x^lx y^ly z^lz according to Gamess
   Grid is created by the input paremters in h5
    Using log grid ri = 1e-06 rf = 100 npts = 1001
   R(n,l,m,s) 0 0 0 0
   R(n,l,m,s) 1 0 0 0
   R(n,l,m,s) 2 0 0 0
   R(n,l,m,s) 3 0 0 0
   R(n,l,m,s) 4 0 0 0
   R(n,l,m,s) 5 0 0 0
   R(n,l,m,s) 6 1 0 0
   R(n,l,m,s) 7 1 0 0
   R(n,l,m,s) 8 1 0 0
   R(n,l,m,s) 9 1 0 0
   R(n,l,m,s) 10 1 0 0
   R(n,l,m,s) 11 1 0 0
   R(n,l,m,s) 12 2 0 0
   R(n,l,m,s) 13 2 0 0
   R(n,l,m,s) 14 2 0 0
   R(n,l,m,s) 15 2 0 0
   R(n,l,m,s) 16 3 0 0
   R(n,l,m,s) 17 3 0 0
Expanding Ylm (angular function) according to Gamess using cartesian gaussians
Adding 1 cartesian gaussian orbitals for l= 0
Adding 1 cartesian gaussian orbitals for l= 0
Adding 1 cartesian gaussian orbitals for l= 0
Adding 1 cartesian gaussian orbitals for l= 0
Adding 1 cartesian gaussian orbitals for l= 0
Adding 1 cartesian gaussian orbitals for l= 0
Adding 3 cartesian gaussian orbitals for l= 1
Adding 3 cartesian gaussian orbitals for l= 1
Adding 3 cartesian gaussian orbitals for l= 1
Adding 3 cartesian gaussian orbitals for l= 1
Adding 3 cartesian gaussian orbitals for l= 1
Adding 3 cartesian gaussian orbitals for l= 1
Adding 6 cartesian gaussian orbitals for l= 2
Adding 6 cartesian gaussian orbitals for l= 2
Adding 6 cartesian gaussian orbitals for l= 2
Adding 6 cartesian gaussian orbitals for l= 2
Adding 10 cartesian gaussian orbitals for l= 3
Adding 10 cartesian gaussian orbitals for l= 3
   Maximum Angular Momentum  = 3
   Number of Radial functors = 18
   Basis size                = 68

  Created SPOSet builder named 'LCAOBSet' of type molecularorbital
Reuse SPOSetBuilder "LCAOBSet" type MolecularOrbital
  Building SPOSet '' with '' basis set.
Reuse SPOSetBuilder "LCAOBSet" type MolecularOrbital
  Building SPOSet '' with '' basis set.
  Creating a determinant updet group=0 sposet=updet
  Reusing a SPO set updet
Using DiracDeterminant
Using rank-1 Sherman-Morrison Fahy update

  Creating a determinant downdet group=1 sposet=downdet
  Reusing a SPO set downdet
Using DiracDeterminant
Using rank-1 Sherman-Morrison Fahy update

  FermionWF = SlaterDet
  RadialJastrowBuilder adds a functor with cusp = -0.25
 size = 10 parameters 
 cusp = -0.25
 rcut = 9.5
Parameter     Name      Value
uu_0 0 1 1  ON 0
uu_1 0 1 1  ON 1
uu_2 0 1 1  ON 2
uu_3 0 1 1  ON 3
uu_4 0 1 1  ON 4
uu_5 0 1 1  ON 5
uu_6 0 1 1  ON 6
uu_7 0 1 1  ON 7
uu_8 0 1 1  ON 8
uu_9 0 1 1  ON 9
  RadialJastrowBuilder adds a functor with cusp = -0.5
 size = 10 parameters 
 cusp = -0.5
 rcut = 9.5
Parameter     Name      Value
ud_0 0 1 1  ON 0
ud_1 0 1 1  ON 1
ud_2 0 1 1  ON 2
ud_3 0 1 1  ON 3
ud_4 0 1 1  ON 4
ud_5 0 1 1  ON 5
ud_6 0 1 1  ON 6
ud_7 0 1 1  ON 7
ud_8 0 1 1  ON 8
ud_9 0 1 1  ON 9
 size = 10 parameters 
 cusp = 0
 rcut = 9.5
Parameter     Name      Value
eSi_0 0 1 1  ON 0
eSi_1 0 1 1  ON 1
eSi_2 0 1 1  ON 2
eSi_3 0 1 1  ON 3
eSi_4 0 1 1  ON 4
eSi_5 0 1 1  ON 5
eSi_6 0 1 1  ON 6
eSi_7 0 1 1  ON 7
eSi_8 0 1 1  ON 8
eSi_9 0 1 1  ON 9
Expected 26 parameters, but found 0 in PolynomialFunctor3D.
Expected 26 parameters, but found 0 in PolynomialFunctor3D.
  QMCHamiltonian::addOperator Kinetic to H, physical Hamiltonian 
  QMCHamiltonian::addOperator ElecElec to H, physical Hamiltonian 
QMCHamiltonian::addOperatorType added type coulomb named ElecElec
  CoulombAA for ion0 is not created.  Number of particles == 1 and nonPeriodic

  ECPotential builder for pseudopotential 

  Adding pseudopotential for Si
   Linear grid  ri=0 rf=10 npts = 10001
    ECPComponentBuilder::buildSemiLocalAndLocal 
    Assuming Hartree unit
   Number of angular momentum channels 2
   Maximum angular momentum channel 1
   Creating a Linear Grid Rmax=0.725147
  Using global grid with delta = 0.001
   Making L=1 a local potential with a radial cutoff of 9.999
    Non-local pseudopotential parameters
    Maximum angular mementum = 0
    Number of non-local channels = 1
       l(0)=0
    Cutoff radius = 0.726
    Spherical grids and weights: 
                        1                 0                 0       0.08333333333
                       -1   1.224646799e-16                 0       0.08333333333
             0.4472135955       0.894427191                 0       0.08333333333
            -0.4472135955      0.7236067977      0.5257311121       0.08333333333
             0.4472135955      0.2763932023      0.8506508084       0.08333333333
            -0.4472135955     -0.2763932023      0.8506508084       0.08333333333
             0.4472135955     -0.7236067977      0.5257311121       0.08333333333
            -0.4472135955      -0.894427191   1.095357397e-16       0.08333333333
             0.4472135955     -0.7236067977     -0.5257311121       0.08333333333
            -0.4472135955     -0.2763932023     -0.8506508084       0.08333333333
             0.4472135955      0.2763932023     -0.8506508084       0.08333333333
            -0.4472135955      0.7236067977     -0.5257311121       0.08333333333
    Maximum cutoff radius 0.726
  QMCHamiltonian::addOperator LocalECP to H, physical Hamiltonian 

  Using NonLocalECP potential 
    Maximum grid on a sphere for NonLocalECPotential: 12
  QMCHamiltonian::addOperator NonLocalECP to H, physical Hamiltonian 
QMCHamiltonian::addOperatorType added type pseudo named PseudoPot

  QMCHamiltonian::add2WalkerProperty added
    4 to P::PropertyList 
    0 to P::Collectables 
    starting Index of the observables in P::PropertyList = 9
ParticleSetPool::randomize 
<init source="ion0" target="e">
</init>
  Initialization Execution time = 0.7151 secs
=========================================================
 Summary of QMC systems 
=========================================================
ParticleSetPool has: 

  ParticleSet e : 0 7 12 

    12

    u -3.4381866764e+00  1.3255295555e+00  8.4567237346e-01
    u -2.9142597727e+00 -9.2691391582e-01  6.4215927418e-01
    u  1.5838131675e+00 -1.5723790549e+00 -1.3188129034e+00
    u  1.0373726212e+00  4.0150237031e-01  6.7991170333e-01
    u  2.0459233599e-01  6.4096317793e-01 -3.9673754985e+00
    u -1.9818580693e+00 -1.6305057781e-01  1.1608979373e-01
    u  3.1648739131e-01  2.5774124942e-01 -2.1141544845e-01
    d -5.4354048140e-01  1.0197823497e+00 -1.7193509103e+00
    d -5.1730165256e-01  3.5403604195e+00  6.0702662136e-02
    d -1.1127723819e+00  7.2758489438e-01 -1.5667952100e+00
    (... and 2 more particle positions ...)

  ParticleSet ion0 : 0 1 

    1

    Si  0.0000000000e+00  0.0000000000e+00  0.0000000000e+00

  Hamiltonian h0
  Kinetic         Kinetic energy
  ElecElec        CoulombAA source/target e

  LocalECP        LocalECPotential: ion0
  NonLocalECP     NonLocalECPotential: ion0

=========================================================
  Start VMC
  File Root Si.log.s000 append = no 
=========================================================
  Adding 1 walkers to 0 existing sets
  Total number of walkers: 1.0240000000e+03
  Total weight: 1.0240000000e+03
  Resetting Properties of the walkers 1 x 13

<vmc function="put">
  qmc_counter=0  my_counter=0
  time step      = 1.5000000000e-01
  blocks         = 200
  steps          = 1
  substeps       = 5
  current        = 0
  target samples = 1.0240000000e+03
  walkers/mpi    = 1

  stepsbetweensamples = 200
<parameter name="blocks" condition="int">200</parameter>
<parameter name="blocks_between_recompute" condition="int">0</parameter>
<parameter name="check_properties" condition="int">100</parameter>
<parameter name="checkproperties" condition="int">100</parameter>
<parameter name="current" condition="int">0</parameter>
<parameter name="dmcwalkersperthread" condition="real">1.0000000000e+00</parameter>
<parameter name="maxcpusecs" condition="real">3.6000000000e+05</parameter>
<parameter name="record_configs" condition="int">0</parameter>
<parameter name="record_walkers" condition="int">200</parameter>
<parameter name="recordconfigs" condition="int">0</parameter>
<parameter name="recordwalkers" condition="int">200</parameter>
<parameter name="rewind" condition="int">0</parameter>
<parameter name="samples" condition="real">1.0240000000e+03</parameter>
<parameter name="samplesperthread" condition="real">1.0000000000e+00</parameter>
<parameter name="steps" condition="int">1</parameter>
<parameter name="stepsbetweensamples" condition="int">200</parameter>
<parameter name="store_configs" condition="int">0</parameter>
<parameter name="storeconfigs" condition="int">0</parameter>
<parameter name="sub_steps" condition="int">5</parameter>
<parameter name="substeps" condition="int">5</parameter>
<parameter name="tau" condition="au">1.5000000000e-01</parameter>
<parameter name="time_step" condition="au">1.5000000000e-01</parameter>
<parameter name="timestep" condition="au">1.5000000000e-01</parameter>
<parameter name="use_drift" condition="string">no</parameter>
<parameter name="usedrift" condition="string">no</parameter>
<parameter name="walkers" condition="int">1</parameter>
<parameter name="warmup_steps" condition="int">100</parameter>
<parameter name="warmupsteps" condition="int">100</parameter>
  DumpConfig==false Nothing (configurations, state) will be saved.
  Walker Samples are dumped every 200 steps.
</vmc>
  Initial partition of walkers 0 1 

  Using Particle by Particle moves
  Walker moves without drift
  Total Sample Size   =1024
  Walker distribution on root = 0 1 
  Using Locality Approximation
===== Memory Usage after the buffer registration =====
Available memory on node 0, free + buffers : 86851 MB
Memory footprint by rank 0 on node 0       : 73 MB
==================================================
  Anonymous Buffer size per walker : 5408 Bytes.
MEMORY increase 0 MB VMC::resetRun
====================================================
  SimpleFixedNodeBranch::finalize after a VMC block
    QMC counter        = 0
    time step          = 0.15
    reference energy   = -101.799
    reference variance = 4.92185
====================================================
  QMC Execution time = 1.4267e+00 secs
Loop execution max-interations = 5

=========================================================
  Start QMCFixedSampleLinearOptimize
  File Root Si.log.s001 append = no 
=========================================================
  Skip QMCDriver::putQMCInfo 
  Resetting Properties of the walkers 1 x 13

=========================================================
  Start VMC
  File Root Si.log.s001 append = no 
=========================================================
  Using the current 1 walkers.
  Total number of walkers: 1.0240e+03
  Total weight: 1.0240e+03
  Resetting Properties of the walkers 1 x 13

<vmc function="put">
  qmc_counter=0  my_counter=0
  time step      = 1.5000e-01
  blocks         = 200
  steps          = 2
  substeps       = 5
  current        = 0
  target samples = 2.5600e+05
  walkers/mpi    = 1

  stepsbetweensamples = 1
<parameter name="blocks" condition="int">200</parameter>
<parameter name="blocks_between_recompute" condition="int">0</parameter>
<parameter name="check_properties" condition="int">100</parameter>
<parameter name="checkproperties" condition="int">100</parameter>
<parameter name="current" condition="int">0</parameter>
<parameter name="dmcwalkersperthread" condition="real">2.5000e+02</parameter>
<parameter name="maxcpusecs" condition="real">3.6000e+05</parameter>
<parameter name="record_configs" condition="int">0</parameter>
<parameter name="record_walkers" condition="int">1</parameter>
<parameter name="recordconfigs" condition="int">0</parameter>
<parameter name="recordwalkers" condition="int">1</parameter>
<parameter name="rewind" condition="int">0</parameter>
<parameter name="samples" condition="real">2.5600e+05</parameter>
<parameter name="samplesperthread" condition="real">2.5000e+02</parameter>
<parameter name="steps" condition="int">2</parameter>
<parameter name="stepsbetweensamples" condition="int">1</parameter>
<parameter name="store_configs" condition="int">0</parameter>
<parameter name="storeconfigs" condition="int">0</parameter>
<parameter name="sub_steps" condition="int">5</parameter>
<parameter name="substeps" condition="int">5</parameter>
<parameter name="tau" condition="au">1.5000e-01</parameter>
<parameter name="time_step" condition="au">1.5000e-01</parameter>
<parameter name="timestep" condition="au">1.5000e-01</parameter>
<parameter name="use_drift" condition="string">no</parameter>
<parameter name="usedrift" condition="string">no</parameter>
<parameter name="walkers" condition="int">1</parameter>
<parameter name="warmup_steps" condition="int">0</parameter>
<parameter name="warmupsteps" condition="int">0</parameter>
  DumpConfig==false Nothing (configurations, state) will be saved.
  Walker Samples are dumped every 1 steps.
</vmc>
    Restarting, cummulative properties:
      energy     = -1.0180e+02
      variance   = 0.0000e+00
      r2accepted = 1.0000e-10
      r2proposed = 1.0000e-10
 Using QMCCostFunction::QMCCostFunction
  EstimatorManagerBase::add replace LocalEnergy estimator.
<optimization-report>
<vmc stage="main" blocks="200">
  Cannot make clones again. Use existing 1 clones
  Initial partition of walkers 0 1 

  Using Particle by Particle moves
  Walker moves without drift
  Total Sample Size   =256000
  Walker distribution on root = 0 1 
  Using Locality Approximation
===== Memory Usage after the buffer registration =====
Available memory on node 0, free + buffers : 86836 MB
Memory footprint by rank 0 on node 0       : 73 MB
==================================================
  Anonymous Buffer size per walker : 5408 Bytes.
MEMORY increase 0 MB VMC::resetRun
====================================================
  SimpleFixedNodeBranch::finalize after a VMC block
    QMC counter        = 1
    time step          = 0.15
    reference energy   = -101.801
    reference variance = 4.75706
====================================================
  Execution time = 1.6699e+00
</vmc>
<opt stage="setup">
  <log>
   Reading configurations from h5FileRoot Si.log.s001
  QMCCostFunction is created with 1 threads.
  Using Nonlocal PP in Opt: NonLocalECP
   Number of samples loaded to each thread : 250 
  VMC Eavg = -1.0175e+02
  VMC Evar = 4.8793e+00
  Total weights = 2.5600e+05
  Execution time = 2.5942e-01
  </log>
</opt>
<opt stage="main" walkers="256000">
  <log>

*****************************************
Building overlap and Hamiltonian matrices
*****************************************

Among totally 30 optimized parameters, largest LM parameter change : 8.3551e-01 at parameter 20

******************************************************************************
Init Cost =   4.8793e+00    New Cost =   2.0998e+00  Delta Cost =  -2.7795e+00
******************************************************************************

The new set of parameters is valid. Updating the trial wave function!

*****************************************************************************
Applying the update for shift_i =   1.0000e-02     and shift_s =   2.5000e-01
*****************************************************************************
  Execution time = 2.7193e+00
  </log>
  <optVariables href="Si.log.s001.opt.xml">
uu_0 1.0747e-01 1 1  ON 0
uu_1 1.2772e-02 1 1  ON 1
uu_2 -1.3586e-02 1 1  ON 2
uu_3 -2.2048e-02 1 1  ON 3
uu_4 -3.2119e-02 1 1  ON 4
uu_5 -3.1964e-02 1 1  ON 5
uu_6 -2.8948e-02 1 1  ON 6
uu_7 -1.6582e-02 1 1  ON 7
uu_8 -8.8499e-03 1 1  ON 8
uu_9 3.0961e-03 1 1  ON 9
ud_0 1.6077e-01 1 1  ON 10
ud_1 4.9718e-02 1 1  ON 11
ud_2 5.8835e-03 1 1  ON 12
ud_3 -1.5637e-02 1 1  ON 13
ud_4 -3.3780e-02 1 1  ON 14
ud_5 -3.5043e-02 1 1  ON 15
ud_6 -3.1076e-02 1 1  ON 16
ud_7 -2.0036e-02 1 1  ON 17
ud_8 -1.1002e-02 1 1  ON 18
ud_9 -7.4340e-03 1 1  ON 19
eSi_0 -8.3551e-01 1 1  ON 20
eSi_1 -2.1016e-01 1 1  ON 21
eSi_2 -5.3490e-03 1 1  ON 22
eSi_3 1.8059e-01 1 1  ON 23
eSi_4 2.6093e-01 1 1  ON 24
eSi_5 2.8102e-01 1 1  ON 25
eSi_6 2.1540e-01 1 1  ON 26
eSi_7 1.0967e-01 1 1  ON 27
eSi_8 3.8519e-02 1 1  ON 28
eSi_9 -1.4764e-02 1 1  ON 29
  </optVariables>
   Restore the number of walkers to 1, removing 0 walkers.
</opt>
</optimization-report>
  QMC Execution time = 2.7305e+00 secs
  Reusing QMCFixedSampleLinearOptimize
 Using QMCCostFunction::QMCCostFunction

=========================================================
  Start QMCFixedSampleLinearOptimize
  File Root Si.log.s002 append = no 
=========================================================
  Skip QMCDriver::putQMCInfo 
  Resetting Properties of the walkers 1 x 13

=========================================================
  Start VMC
  File Root Si.log.s002 append = no 
=========================================================
Using existing walkers 
  Resetting Properties of the walkers 1 x 13

<vmc function="put">
  qmc_counter=1  my_counter=1
  time step      = 1.5000e-01
  blocks         = 200
  steps          = 2
  substeps       = 5
  current        = 0
  target samples = 2.5600e+05
  walkers/mpi    = 1

  stepsbetweensamples = 1
<parameter name="blocks" condition="int">200</parameter>
<parameter name="blocks_between_recompute" condition="int">0</parameter>
<parameter name="check_properties" condition="int">100</parameter>
<parameter name="checkproperties" condition="int">100</parameter>
<parameter name="current" condition="int">0</parameter>
<parameter name="dmcwalkersperthread" condition="real">2.5000e+02</parameter>
<parameter name="maxcpusecs" condition="real">3.6000e+05</parameter>
<parameter name="record_configs" condition="int">0</parameter>
<parameter name="record_walkers" condition="int">1</parameter>
<parameter name="recordconfigs" condition="int">0</parameter>
<parameter name="recordwalkers" condition="int">1</parameter>
<parameter name="rewind" condition="int">0</parameter>
<parameter name="samples" condition="real">2.5600e+05</parameter>
<parameter name="samplesperthread" condition="real">2.5000e+02</parameter>
<parameter name="steps" condition="int">2</parameter>
<parameter name="stepsbetweensamples" condition="int">1</parameter>
<parameter name="store_configs" condition="int">0</parameter>
<parameter name="storeconfigs" condition="int">0</parameter>
<parameter name="sub_steps" condition="int">5</parameter>
<parameter name="substeps" condition="int">5</parameter>
<parameter name="tau" condition="au">1.5000e-01</parameter>
<parameter name="time_step" condition="au">1.5000e-01</parameter>
<parameter name="timestep" condition="au">1.5000e-01</parameter>
<parameter name="use_drift" condition="string">no</parameter>
<parameter name="usedrift" condition="string">no</parameter>
<parameter name="walkers" condition="int">1</parameter>
<parameter name="warmup_steps" condition="int">0</parameter>
<parameter name="warmupsteps" condition="int">0</parameter>
  DumpConfig==false Nothing (configurations, state) will be saved.
  Walker Samples are dumped every 1 steps.
</vmc>
  EstimatorManagerBase::add replace LocalEnergy estimator.
  EstimatorManagerBase::add replace LocalEnergy estimator.
<optimization-report>
<vmc stage="main" blocks="200">
  Cannot make clones again. Use existing 1 clones
  Initial partition of walkers 0 1 
  Using Particle by Particle moves
  Walker moves without drift
  Total Sample Size   =256000
  Walker distribution on root = 0 1 
  Using Locality Approximation
===== Memory Usage after the buffer registration =====
Available memory on node 0, free + buffers : 86820 MB
Memory footprint by rank 0 on node 0       : 75 MB
==================================================
====================================================
  SimpleFixedNodeBranch::finalize after a VMC block
    QMC counter        = 2
    time step          = 0.15
    reference energy   = -101.959
    reference variance = 1.96209
====================================================
  Execution time = 2.6793e+00
</vmc>
<opt stage="setup">
  <log>
   Reading configurations from h5FileRoot Si.log.s002
  QMCCostFunction is created with 1 threads.
  Using Nonlocal PP in Opt: NonLocalECP
   Number of samples loaded to each thread : 250 
  VMC Eavg = -1.0194e+02
  VMC Evar = 2.1526e+00
  Total weights = 2.5600e+05
  Execution time = 7.7345e-01
  </log>
</opt>
<opt stage="main" walkers="256000">
  <log>

*****************************************
Building overlap and Hamiltonian matrices
*****************************************

Among totally 30 optimized parameters, largest LM parameter change : 2.8592e-01 at parameter 20

******************************************************************************
Init Cost =   2.1526e+00    New Cost =   2.2593e+00  Delta Cost =   1.0673e-01
******************************************************************************

The new set of parameters is valid. Updating the trial wave function!

*****************************************************************************
Applying the update for shift_i =   1.0000e-02     and shift_s =   6.2500e-02
*****************************************************************************
  Execution time = 4.1965e+00
  </log>
  <optVariables href="Si.log.s002.opt.xml">
uu_0 1.3146e-01 1 1  ON 0
uu_1 2.4418e-02 1 1  ON 1
uu_2 -1.3708e-02 1 1  ON 2
uu_3 -3.2651e-02 1 1  ON 3
uu_4 -5.1156e-02 1 1  ON 4
uu_5 -5.7074e-02 1 1  ON 5
uu_6 -5.6904e-02 1 1  ON 6
uu_7 -3.8854e-02 1 1  ON 7
uu_8 -2.2236e-02 1 1  ON 8
uu_9 1.9449e-03 1 1  ON 9
ud_0 2.0490e-01 1 1  ON 10
ud_1 8.1997e-02 1 1  ON 11
ud_2 2.3685e-02 1 1  ON 12
ud_3 -8.4375e-03 1 1  ON 13
ud_4 -3.7859e-02 1 1  ON 14
ud_5 -4.5461e-02 1 1  ON 15
ud_6 -4.8527e-02 1 1  ON 16
ud_7 -3.0741e-02 1 1  ON 17
ud_8 -1.4958e-02 1 1  ON 18
ud_9 -9.8421e-04 1 1  ON 19
eSi_0 -1.1214e+00 1 1  ON 20
eSi_1 -4.1257e-01 1 1  ON 21
eSi_2 -1.0008e-01 1 1  ON 22
eSi_3 1.9192e-01 1 1  ON 23
eSi_4 3.5878e-01 1 1  ON 24
eSi_5 4.3593e-01 1 1  ON 25
eSi_6 3.8210e-01 1 1  ON 26
eSi_7 2.2633e-01 1 1  ON 27
eSi_8 7.7293e-02 1 1  ON 28
eSi_9 -7.7093e-03 1 1  ON 29
  </optVariables>
   Restore the number of walkers to 1, removing 0 walkers.
</opt>
</optimization-report>
  QMC Execution time = 4.2067e+00 secs
  Reusing QMCFixedSampleLinearOptimize
 Using QMCCostFunction::QMCCostFunction

=========================================================
  Start QMCFixedSampleLinearOptimize
  File Root Si.log.s003 append = no 
=========================================================
  Skip QMCDriver::putQMCInfo 
  Resetting Properties of the walkers 1 x 13

=========================================================
  Start VMC
  File Root Si.log.s003 append = no 
=========================================================
Using existing walkers 
  Resetting Properties of the walkers 1 x 13

<vmc function="put">
  qmc_counter=2  my_counter=2
  time step      = 1.5000e-01
  blocks         = 200
  steps          = 2
  substeps       = 5
  current        = 0
  target samples = 2.5600e+05
  walkers/mpi    = 1

  stepsbetweensamples = 1
<parameter name="blocks" condition="int">200</parameter>
<parameter name="blocks_between_recompute" condition="int">0</parameter>
<parameter name="check_properties" condition="int">100</parameter>
<parameter name="checkproperties" condition="int">100</parameter>
<parameter name="current" condition="int">0</parameter>
<parameter name="dmcwalkersperthread" condition="real">2.5000e+02</parameter>
<parameter name="maxcpusecs" condition="real">3.6000e+05</parameter>
<parameter name="record_configs" condition="int">0</parameter>
<parameter name="record_walkers" condition="int">1</parameter>
<parameter name="recordconfigs" condition="int">0</parameter>
<parameter name="recordwalkers" condition="int">1</parameter>
<parameter name="rewind" condition="int">0</parameter>
<parameter name="samples" condition="real">2.5600e+05</parameter>
<parameter name="samplesperthread" condition="real">2.5000e+02</parameter>
<parameter name="steps" condition="int">2</parameter>
<parameter name="stepsbetweensamples" condition="int">1</parameter>
<parameter name="store_configs" condition="int">0</parameter>
<parameter name="storeconfigs" condition="int">0</parameter>
<parameter name="sub_steps" condition="int">5</parameter>
<parameter name="substeps" condition="int">5</parameter>
<parameter name="tau" condition="au">1.5000e-01</parameter>
<parameter name="time_step" condition="au">1.5000e-01</parameter>
<parameter name="timestep" condition="au">1.5000e-01</parameter>
<parameter name="use_drift" condition="string">no</parameter>
<parameter name="usedrift" condition="string">no</parameter>
<parameter name="walkers" condition="int">1</parameter>
<parameter name="warmup_steps" condition="int">0</parameter>
<parameter name="warmupsteps" condition="int">0</parameter>
  DumpConfig==false Nothing (configurations, state) will be saved.
  Walker Samples are dumped every 1 steps.
</vmc>
  EstimatorManagerBase::add replace LocalEnergy estimator.
  EstimatorManagerBase::add replace LocalEnergy estimator.
<optimization-report>
<vmc stage="main" blocks="200">
  Cannot make clones again. Use existing 1 clones
  Initial partition of walkers 0 1 
  Using Particle by Particle moves
  Walker moves without drift
  Total Sample Size   =256000
  Walker distribution on root = 0 1 
  Using Locality Approximation
===== Memory Usage after the buffer registration =====
Available memory on node 0, free + buffers : 86818 MB
Memory footprint by rank 0 on node 0       : 77 MB
==================================================
====================================================
  SimpleFixedNodeBranch::finalize after a VMC block
    QMC counter        = 3
    time step          = 0.15
    reference energy   = -101.901
    reference variance = 2.37463
====================================================
  Execution time = 2.6411e+00
</vmc>
<opt stage="setup">
  <log>
   Reading configurations from h5FileRoot Si.log.s003
  QMCCostFunction is created with 1 threads.
  Using Nonlocal PP in Opt: NonLocalECP
   Number of samples loaded to each thread : 250 
  VMC Eavg = -1.0195e+02
  VMC Evar = 2.1741e+00
  Total weights = 2.5600e+05
  Execution time = 7.3993e-01
  </log>
</opt>
<opt stage="main" walkers="256000">
  <log>

*****************************************
Building overlap and Hamiltonian matrices
*****************************************

Among totally 30 optimized parameters, largest LM parameter change : 1.2239e-01 at parameter 20

******************************************************************************
Init Cost =   2.1741e+00    New Cost =   2.2092e+00  Delta Cost =   3.5146e-02
******************************************************************************

The new set of parameters is valid. Updating the trial wave function!

*****************************************************************************
Applying the update for shift_i =   1.0000e-02     and shift_s =   1.5625e-02
*****************************************************************************
  Execution time = 4.1652e+00
  </log>
  <optVariables href="Si.log.s003.opt.xml">
uu_0 1.3680e-01 1 1  ON 0
uu_1 2.9806e-02 1 1  ON 1
uu_2 -1.2293e-02 1 1  ON 2
uu_3 -3.5255e-02 1 1  ON 3
uu_4 -5.7833e-02 1 1  ON 4
uu_5 -6.5778e-02 1 1  ON 5
uu_6 -6.8722e-02 1 1  ON 6
uu_7 -5.1540e-02 1 1  ON 7
uu_8 -3.1716e-02 1 1  ON 8
uu_9 -1.0697e-02 1 1  ON 9
ud_0 2.2024e-01 1 1  ON 10
ud_1 9.7090e-02 1 1  ON 11
ud_2 3.6180e-02 1 1  ON 12
ud_3 -1.5693e-03 1 1  ON 13
ud_4 -3.8161e-02 1 1  ON 14
ud_5 -5.3499e-02 1 1  ON 15
ud_6 -6.3262e-02 1 1  ON 16
ud_7 -4.7211e-02 1 1  ON 17
ud_8 -2.3636e-02 1 1  ON 18
ud_9 -1.1182e-02 1 1  ON 19
eSi_0 -1.2438e+00 1 1  ON 20
eSi_1 -5.2921e-01 1 1  ON 21
eSi_2 -1.8508e-01 1 1  ON 22
eSi_3 1.5930e-01 1 1  ON 23
eSi_4 3.8161e-01 1 1  ON 24
eSi_5 5.1010e-01 1 1  ON 25
eSi_6 5.0029e-01 1 1  ON 26
eSi_7 3.1846e-01 1 1  ON 27
eSi_8 1.2002e-01 1 1  ON 28
eSi_9 3.4293e-03 1 1  ON 29
  </optVariables>
   Restore the number of walkers to 1, removing 0 walkers.
</opt>
</optimization-report>
  QMC Execution time = 4.1758e+00 secs
  Reusing QMCFixedSampleLinearOptimize
 Using QMCCostFunction::QMCCostFunction

=========================================================
  Start QMCFixedSampleLinearOptimize
  File Root Si.log.s004 append = no 
=========================================================
  Skip QMCDriver::putQMCInfo 
  Resetting Properties of the walkers 1 x 13

=========================================================
  Start VMC
  File Root Si.log.s004 append = no 
=========================================================
Using existing walkers 
  Resetting Properties of the walkers 1 x 13

<vmc function="put">
  qmc_counter=3  my_counter=3
  time step      = 1.5000e-01
  blocks         = 200
  steps          = 2
  substeps       = 5
  current        = 0
  target samples = 2.5600e+05
  walkers/mpi    = 1

  stepsbetweensamples = 1
<parameter name="blocks" condition="int">200</parameter>
<parameter name="blocks_between_recompute" condition="int">0</parameter>
<parameter name="check_properties" condition="int">100</parameter>
<parameter name="checkproperties" condition="int">100</parameter>
<parameter name="current" condition="int">0</parameter>
<parameter name="dmcwalkersperthread" condition="real">2.5000e+02</parameter>
<parameter name="maxcpusecs" condition="real">3.6000e+05</parameter>
<parameter name="record_configs" condition="int">0</parameter>
<parameter name="record_walkers" condition="int">1</parameter>
<parameter name="recordconfigs" condition="int">0</parameter>
<parameter name="recordwalkers" condition="int">1</parameter>
<parameter name="rewind" condition="int">0</parameter>
<parameter name="samples" condition="real">2.5600e+05</parameter>
<parameter name="samplesperthread" condition="real">2.5000e+02</parameter>
<parameter name="steps" condition="int">2</parameter>
<parameter name="stepsbetweensamples" condition="int">1</parameter>
<parameter name="store_configs" condition="int">0</parameter>
<parameter name="storeconfigs" condition="int">0</parameter>
<parameter name="sub_steps" condition="int">5</parameter>
<parameter name="substeps" condition="int">5</parameter>
<parameter name="tau" condition="au">1.5000e-01</parameter>
<parameter name="time_step" condition="au">1.5000e-01</parameter>
<parameter name="timestep" condition="au">1.5000e-01</parameter>
<parameter name="use_drift" condition="string">no</parameter>
<parameter name="usedrift" condition="string">no</parameter>
<parameter name="walkers" condition="int">1</parameter>
<parameter name="warmup_steps" condition="int">0</parameter>
<parameter name="warmupsteps" condition="int">0</parameter>
  DumpConfig==false Nothing (configurations, state) will be saved.
  Walker Samples are dumped every 1 steps.
</vmc>
  EstimatorManagerBase::add replace LocalEnergy estimator.
  EstimatorManagerBase::add replace LocalEnergy estimator.
<optimization-report>
<vmc stage="main" blocks="200">
  Cannot make clones again. Use existing 1 clones
  Initial partition of walkers 0 1 
  Using Particle by Particle moves
  Walker moves without drift
  Total Sample Size   =256000
  Walker distribution on root = 0 1 
  Using Locality Approximation
===== Memory Usage after the buffer registration =====
Available memory on node 0, free + buffers : 86816 MB
Memory footprint by rank 0 on node 0       : 79 MB
==================================================
====================================================
  SimpleFixedNodeBranch::finalize after a VMC block
    QMC counter        = 4
    time step          = 0.15
    reference energy   = -101.97
    reference variance = 2.15758
====================================================
  Execution time = 2.5953e+00
</vmc>
<opt stage="setup">
  <log>
   Reading configurations from h5FileRoot Si.log.s004
  QMCCostFunction is created with 1 threads.
  Using Nonlocal PP in Opt: NonLocalECP
   Number of samples loaded to each thread : 250 
  VMC Eavg = -1.0195e+02
  VMC Evar = 2.3141e+00
  Total weights = 2.5600e+05
  Execution time = 8.1570e-01
  </log>
</opt>
<opt stage="main" walkers="256000">
  <log>

*****************************************
Building overlap and Hamiltonian matrices
*****************************************

Among totally 30 optimized parameters, largest LM parameter change : 9.1589e-02 at parameter 27

******************************************************************************
Init Cost =   2.3141e+00    New Cost =   2.3363e+00  Delta Cost =   2.2165e-02
******************************************************************************

The new set of parameters is valid. Updating the trial wave function!

*****************************************************************************
Applying the update for shift_i =   1.0000e-02     and shift_s =   3.9062e-03
*****************************************************************************
  Execution time = 4.1082e+00
  </log>
  <optVariables href="Si.log.s004.opt.xml">
uu_0 1.4890e-01 1 1  ON 0
uu_1 4.1161e-02 1 1  ON 1
uu_2 -1.9204e-03 1 1  ON 2
uu_3 -2.7983e-02 1 1  ON 3
uu_4 -5.5029e-02 1 1  ON 4
uu_5 -6.9428e-02 1 1  ON 5
uu_6 -7.8273e-02 1 1  ON 6
uu_7 -6.7846e-02 1 1  ON 7
uu_8 -4.7457e-02 1 1  ON 8
uu_9 -1.4729e-02 1 1  ON 9
ud_0 2.2549e-01 1 1  ON 10
ud_1 1.0098e-01 1 1  ON 11
ud_2 3.8282e-02 1 1  ON 12
ud_3 -1.8082e-03 1 1  ON 13
ud_4 -3.8521e-02 1 1  ON 14
ud_5 -5.6717e-02 1 1  ON 15
ud_6 -6.5938e-02 1 1  ON 16
ud_7 -4.9775e-02 1 1  ON 17
ud_8 -2.6865e-02 1 1  ON 18
ud_9 -3.1759e-03 1 1  ON 19
eSi_0 -1.3238e+00 1 1  ON 20
eSi_1 -5.9970e-01 1 1  ON 21
eSi_2 -2.3998e-01 1 1  ON 22
eSi_3 1.2537e-01 1 1  ON 23
eSi_4 3.8329e-01 1 1  ON 24
eSi_5 5.4399e-01 1 1  ON 25
eSi_6 5.6007e-01 1 1  ON 26
eSi_7 4.1005e-01 1 1  ON 27
eSi_8 1.6980e-01 1 1  ON 28
eSi_9 1.2195e-02 1 1  ON 29
  </optVariables>
   Restore the number of walkers to 1, removing 0 walkers.
</opt>
</optimization-report>
  QMC Execution time = 4.1184e+00 secs
  Reusing QMCFixedSampleLinearOptimize
 Using QMCCostFunction::QMCCostFunction

=========================================================
  Start QMCFixedSampleLinearOptimize
  File Root Si.log.s005 append = no 
=========================================================
  Skip QMCDriver::putQMCInfo 
  Resetting Properties of the walkers 1 x 13

=========================================================
  Start VMC
  File Root Si.log.s005 append = no 
=========================================================
Using existing walkers 
  Resetting Properties of the walkers 1 x 13

<vmc function="put">
  qmc_counter=4  my_counter=4
  time step      = 1.5000e-01
  blocks         = 200
  steps          = 2
  substeps       = 5
  current        = 0
  target samples = 2.5600e+05
  walkers/mpi    = 1

  stepsbetweensamples = 1
<parameter name="blocks" condition="int">200</parameter>
<parameter name="blocks_between_recompute" condition="int">0</parameter>
<parameter name="check_properties" condition="int">100</parameter>
<parameter name="checkproperties" condition="int">100</parameter>
<parameter name="current" condition="int">0</parameter>
<parameter name="dmcwalkersperthread" condition="real">2.5000e+02</parameter>
<parameter name="maxcpusecs" condition="real">3.6000e+05</parameter>
<parameter name="record_configs" condition="int">0</parameter>
<parameter name="record_walkers" condition="int">1</parameter>
<parameter name="recordconfigs" condition="int">0</parameter>
<parameter name="recordwalkers" condition="int">1</parameter>
<parameter name="rewind" condition="int">0</parameter>
<parameter name="samples" condition="real">2.5600e+05</parameter>
<parameter name="samplesperthread" condition="real">2.5000e+02</parameter>
<parameter name="steps" condition="int">2</parameter>
<parameter name="stepsbetweensamples" condition="int">1</parameter>
<parameter name="store_configs" condition="int">0</parameter>
<parameter name="storeconfigs" condition="int">0</parameter>
<parameter name="sub_steps" condition="int">5</parameter>
<parameter name="substeps" condition="int">5</parameter>
<parameter name="tau" condition="au">1.5000e-01</parameter>
<parameter name="time_step" condition="au">1.5000e-01</parameter>
<parameter name="timestep" condition="au">1.5000e-01</parameter>
<parameter name="use_drift" condition="string">no</parameter>
<parameter name="usedrift" condition="string">no</parameter>
<parameter name="walkers" condition="int">1</parameter>
<parameter name="warmup_steps" condition="int">0</parameter>
<parameter name="warmupsteps" condition="int">0</parameter>
  DumpConfig==false Nothing (configurations, state) will be saved.
  Walker Samples are dumped every 1 steps.
</vmc>
  EstimatorManagerBase::add replace LocalEnergy estimator.
  EstimatorManagerBase::add replace LocalEnergy estimator.
<optimization-report>
<vmc stage="main" blocks="200">
  Cannot make clones again. Use existing 1 clones
  Initial partition of walkers 0 1 
  Using Particle by Particle moves
  Walker moves without drift
  Total Sample Size   =256000
  Walker distribution on root = 0 1 
  Using Locality Approximation
===== Memory Usage after the buffer registration =====
Available memory on node 0, free + buffers : 86813 MB
Memory footprint by rank 0 on node 0       : 80 MB
==================================================
====================================================
  SimpleFixedNodeBranch::finalize after a VMC block
    QMC counter        = 5
    time step          = 0.15
    reference energy   = -101.976
    reference variance = 2.06009
====================================================
  Execution time = 2.4411e+00
</vmc>
<opt stage="setup">
  <log>
   Reading configurations from h5FileRoot Si.log.s005
  QMCCostFunction is created with 1 threads.
  Using Nonlocal PP in Opt: NonLocalECP
   Number of samples loaded to each thread : 250 
  VMC Eavg = -1.0195e+02
  VMC Evar = 2.2179e+00
  Total weights = 2.5600e+05
  Execution time = 7.0677e-01
  </log>
</opt>
<opt stage="main" walkers="256000">
  <log>

*****************************************
Building overlap and Hamiltonian matrices
*****************************************

Among totally 30 optimized parameters, largest LM parameter change : 7.0796e-02 at parameter 28

******************************************************************************
Init Cost =   2.2179e+00    New Cost =   2.2227e+00  Delta Cost =   4.7659e-03
******************************************************************************

The new set of parameters is valid. Updating the trial wave function!

*****************************************************************************
Applying the update for shift_i =   1.0000e-02     and shift_s =   3.9062e-03
*****************************************************************************
  Execution time = 3.7166e+00
  </log>
  <optVariables href="Si.log.s005.opt.xml">
uu_0 1.4928e-01 1 1  ON 0
uu_1 4.1294e-02 1 1  ON 1
uu_2 -2.5513e-03 1 1  ON 2
uu_3 -2.8145e-02 1 1  ON 3
uu_4 -5.6986e-02 1 1  ON 4
uu_5 -7.2751e-02 1 1  ON 5
uu_6 -8.0169e-02 1 1  ON 6
uu_7 -6.5413e-02 1 1  ON 7
uu_8 -4.8189e-02 1 1  ON 8
uu_9 -2.6222e-02 1 1  ON 9
ud_0 2.3003e-01 1 1  ON 10
ud_1 1.0635e-01 1 1  ON 11
ud_2 4.2122e-02 1 1  ON 12
ud_3 2.4669e-03 1 1  ON 13
ud_4 -3.7263e-02 1 1  ON 14
ud_5 -5.6305e-02 1 1  ON 15
ud_6 -7.1491e-02 1 1  ON 16
ud_7 -6.0932e-02 1 1  ON 17
ud_8 -3.8733e-02 1 1  ON 18
ud_9 -8.6153e-03 1 1  ON 19
eSi_0 -1.3801e+00 1 1  ON 20
eSi_1 -6.5509e-01 1 1  ON 21
eSi_2 -2.8562e-01 1 1  ON 22
eSi_3 9.1088e-02 1 1  ON 23
eSi_4 3.7136e-01 1 1  ON 24
eSi_5 5.5764e-01 1 1  ON 25
eSi_6 6.0144e-01 1 1  ON 26
eSi_7 4.8015e-01 1 1  ON 27
eSi_8 2.4059e-01 1 1  ON 28
eSi_9 3.0129e-02 1 1  ON 29
  </optVariables>
   Restore the number of walkers to 1, removing 0 walkers.
</opt>
</optimization-report>
  QMC Execution time = 3.7261e+00 secs
Loop execution max-interations = 5
  Reusing QMCFixedSampleLinearOptimize
 Using QMCCostFunction::QMCCostFunction

=========================================================
  Start QMCFixedSampleLinearOptimize
  File Root Si.log.s006 append = no 
=========================================================
  Skip QMCDriver::putQMCInfo 
  Resetting Properties of the walkers 1 x 13

=========================================================
  Start VMC
  File Root Si.log.s006 append = no 
=========================================================
  Using the current 1 walkers.
  Total number of walkers: 1.0240e+03
  Total weight: 1.0240e+03
  Resetting Properties of the walkers 1 x 13

<vmc function="put">
  qmc_counter=0  my_counter=5
  time step      = 1.5000e-01
  blocks         = 200
  steps          = 2
  substeps       = 5
  current        = 0
  target samples = 2.5600e+05
  walkers/mpi    = 1

  stepsbetweensamples = 1
<parameter name="blocks" condition="int">200</parameter>
<parameter name="blocks_between_recompute" condition="int">0</parameter>
<parameter name="check_properties" condition="int">100</parameter>
<parameter name="checkproperties" condition="int">100</parameter>
<parameter name="current" condition="int">0</parameter>
<parameter name="dmcwalkersperthread" condition="real">2.5000e+02</parameter>
<parameter name="maxcpusecs" condition="real">3.6000e+05</parameter>
<parameter name="record_configs" condition="int">0</parameter>
<parameter name="record_walkers" condition="int">1</parameter>
<parameter name="recordconfigs" condition="int">0</parameter>
<parameter name="recordwalkers" condition="int">1</parameter>
<parameter name="rewind" condition="int">0</parameter>
<parameter name="samples" condition="real">2.5600e+05</parameter>
<parameter name="samplesperthread" condition="real">2.5000e+02</parameter>
<parameter name="steps" condition="int">2</parameter>
<parameter name="stepsbetweensamples" condition="int">1</parameter>
<parameter name="store_configs" condition="int">0</parameter>
<parameter name="storeconfigs" condition="int">0</parameter>
<parameter name="sub_steps" condition="int">5</parameter>
<parameter name="substeps" condition="int">5</parameter>
<parameter name="tau" condition="au">1.5000e-01</parameter>
<parameter name="time_step" condition="au">1.5000e-01</parameter>
<parameter name="timestep" condition="au">1.5000e-01</parameter>
<parameter name="use_drift" condition="string">no</parameter>
<parameter name="usedrift" condition="string">no</parameter>
<parameter name="walkers" condition="int">1</parameter>
<parameter name="warmup_steps" condition="int">0</parameter>
<parameter name="warmupsteps" condition="int">0</parameter>
  DumpConfig==false Nothing (configurations, state) will be saved.
  Walker Samples are dumped every 1 steps.
</vmc>
  EstimatorManagerBase::add replace LocalEnergy estimator.
  EstimatorManagerBase::add replace LocalEnergy estimator.
<optimization-report>
<vmc stage="main" blocks="200">
  Cannot make clones again. Use existing 1 clones
  Initial partition of walkers 0 1 
  Using Particle by Particle moves
  Walker moves without drift
  Total Sample Size   =256000
  Walker distribution on root = 0 1 
  Using Locality Approximation
===== Memory Usage after the buffer registration =====
Available memory on node 0, free + buffers : 86812 MB
Memory footprint by rank 0 on node 0       : 82 MB
==================================================
====================================================
  SimpleFixedNodeBranch::finalize after a VMC block
    QMC counter        = 6
    time step          = 0.15
    reference energy   = -101.914
    reference variance = 4.37962
====================================================
  Execution time = 2.2761e+00
</vmc>
<opt stage="setup">
  <log>
   Reading configurations from h5FileRoot Si.log.s006
  QMCCostFunction is created with 1 threads.
  Using Nonlocal PP in Opt: NonLocalECP
   Number of samples loaded to each thread : 250 
  VMC Eavg = -1.0195e+02
  VMC Evar = 2.2658e+00
  Total weights = 2.5600e+05
  Execution time = 5.6656e-01
  </log>
</opt>
<opt stage="main" walkers="256000">
  <log>

*****************************************
Building overlap and Hamiltonian matrices
*****************************************

Among totally 30 optimized parameters, largest LM parameter change : 7.5409e-02 at parameter 27

******************************************************************************
Init Cost =   2.2658e+00    New Cost =   2.2715e+00  Delta Cost =   5.6497e-03
******************************************************************************

The new set of parameters is valid. Updating the trial wave function!

*****************************************************************************
Applying the update for shift_i =   1.0000e-02     and shift_s =   3.9062e-03
*****************************************************************************
  Execution time = 3.3434e+00
  </log>
  <optVariables href="Si.log.s006.opt.xml">
uu_0 1.5441e-01 1 1  ON 0
uu_1 4.6598e-02 1 1  ON 1
uu_2 3.1417e-03 1 1  ON 2
uu_3 -2.3132e-02 1 1  ON 3
uu_4 -5.3374e-02 1 1  ON 4
uu_5 -6.9232e-02 1 1  ON 5
uu_6 -8.1209e-02 1 1  ON 6
uu_7 -7.3390e-02 1 1  ON 7
uu_8 -5.5760e-02 1 1  ON 8
uu_9 -3.0507e-02 1 1  ON 9
ud_0 2.3832e-01 1 1  ON 10
ud_1 1.1476e-01 1 1  ON 11
ud_2 4.9628e-02 1 1  ON 12
ud_3 8.7709e-03 1 1  ON 13
ud_4 -3.1957e-02 1 1  ON 14
ud_5 -5.5804e-02 1 1  ON 15
ud_6 -6.9812e-02 1 1  ON 16
ud_7 -5.9626e-02 1 1  ON 17
ud_8 -3.1492e-02 1 1  ON 18
ud_9 -7.4304e-03 1 1  ON 19
eSi_0 -1.4187e+00 1 1  ON 20
eSi_1 -6.9298e-01 1 1  ON 21
eSi_2 -3.2292e-01 1 1  ON 22
eSi_3 5.7995e-02 1 1  ON 23
eSi_4 3.4611e-01 1 1  ON 24
eSi_5 5.5465e-01 1 1  ON 25
eSi_6 6.3770e-01 1 1  ON 26
eSi_7 5.5556e-01 1 1  ON 27
eSi_8 3.0446e-01 1 1  ON 28
eSi_9 3.9184e-02 1 1  ON 29
  </optVariables>
   Restore the number of walkers to 1, removing 0 walkers.
</opt>
</optimization-report>
  QMC Execution time = 3.3534e+00 secs
  Reusing QMCFixedSampleLinearOptimize
 Using QMCCostFunction::QMCCostFunction

=========================================================
  Start QMCFixedSampleLinearOptimize
  File Root Si.log.s007 append = no 
=========================================================
  Skip QMCDriver::putQMCInfo 
  Resetting Properties of the walkers 1 x 13

=========================================================
  Start VMC
  File Root Si.log.s007 append = no 
=========================================================
Using existing walkers 
  Resetting Properties of the walkers 1 x 13

<vmc function="put">
  qmc_counter=1  my_counter=6
  time step      = 1.5000e-01
  blocks         = 200
  steps          = 2
  substeps       = 5
  current        = 0
  target samples = 2.5600e+05
  walkers/mpi    = 1

  stepsbetweensamples = 1
<parameter name="blocks" condition="int">200</parameter>
<parameter name="blocks_between_recompute" condition="int">0</parameter>
<parameter name="check_properties" condition="int">100</parameter>
<parameter name="checkproperties" condition="int">100</parameter>
<parameter name="current" condition="int">0</parameter>
<parameter name="dmcwalkersperthread" condition="real">2.5000e+02</parameter>
<parameter name="maxcpusecs" condition="real">3.6000e+05</parameter>
<parameter name="record_configs" condition="int">0</parameter>
<parameter name="record_walkers" condition="int">1</parameter>
<parameter name="recordconfigs" condition="int">0</parameter>
<parameter name="recordwalkers" condition="int">1</parameter>
<parameter name="rewind" condition="int">0</parameter>
<parameter name="samples" condition="real">2.5600e+05</parameter>
<parameter name="samplesperthread" condition="real">2.5000e+02</parameter>
<parameter name="steps" condition="int">2</parameter>
<parameter name="stepsbetweensamples" condition="int">1</parameter>
<parameter name="store_configs" condition="int">0</parameter>
<parameter name="storeconfigs" condition="int">0</parameter>
<parameter name="sub_steps" condition="int">5</parameter>
<parameter name="substeps" condition="int">5</parameter>
<parameter name="tau" condition="au">1.5000e-01</parameter>
<parameter name="time_step" condition="au">1.5000e-01</parameter>
<parameter name="timestep" condition="au">1.5000e-01</parameter>
<parameter name="use_drift" condition="string">no</parameter>
<parameter name="usedrift" condition="string">no</parameter>
<parameter name="walkers" condition="int">1</parameter>
<parameter name="warmup_steps" condition="int">0</parameter>
<parameter name="warmupsteps" condition="int">0</parameter>
  DumpConfig==false Nothing (configurations, state) will be saved.
  Walker Samples are dumped every 1 steps.
</vmc>
  EstimatorManagerBase::add replace LocalEnergy estimator.
  EstimatorManagerBase::add replace LocalEnergy estimator.
<optimization-report>
<vmc stage="main" blocks="200">
  Cannot make clones again. Use existing 1 clones
  Initial partition of walkers 0 1 
  Using Particle by Particle moves
  Walker moves without drift
  Total Sample Size   =256000
  Walker distribution on root = 0 1 
  Using Locality Approximation
===== Memory Usage after the buffer registration =====
Available memory on node 0, free + buffers : 86810 MB
Memory footprint by rank 0 on node 0       : 84 MB
==================================================
====================================================
  SimpleFixedNodeBranch::finalize after a VMC block
    QMC counter        = 7
    time step          = 0.15
    reference energy   = -101.931
    reference variance = 2.12624
====================================================
  Execution time = 2.1542e+00
</vmc>
<opt stage="setup">
  <log>
   Reading configurations from h5FileRoot Si.log.s007
  QMCCostFunction is created with 1 threads.
  Using Nonlocal PP in Opt: NonLocalECP
   Number of samples loaded to each thread : 250 
  VMC Eavg = -1.0195e+02
  VMC Evar = 2.2174e+00
  Total weights = 2.5600e+05
  Execution time = 4.9194e-01
  </log>
</opt>
<opt stage="main" walkers="256000">
  <log>

*****************************************
Building overlap and Hamiltonian matrices
*****************************************

Among totally 30 optimized parameters, largest LM parameter change : 4.9815e-02 at parameter 28

******************************************************************************
Init Cost =   2.2174e+00    New Cost =   2.2318e+00  Delta Cost =   1.4366e-02
******************************************************************************

The new set of parameters is valid. Updating the trial wave function!

*****************************************************************************
Applying the update for shift_i =   1.0000e-02     and shift_s =   3.9062e-03
*****************************************************************************
  Execution time = 3.0564e+00
  </log>
  <optVariables href="Si.log.s007.opt.xml">
uu_0 1.5214e-01 1 1  ON 0
uu_1 4.3904e-02 1 1  ON 1
uu_2 1.4079e-04 1 1  ON 2
uu_3 -2.7410e-02 1 1  ON 3
uu_4 -5.5843e-02 1 1  ON 4
uu_5 -7.3705e-02 1 1  ON 5
uu_6 -8.6768e-02 1 1  ON 6
uu_7 -8.1495e-02 1 1  ON 7
uu_8 -6.5240e-02 1 1  ON 8
uu_9 -2.8766e-02 1 1  ON 9
ud_0 2.4504e-01 1 1  ON 10
ud_1 1.2000e-01 1 1  ON 11
ud_2 5.5759e-02 1 1  ON 12
ud_3 1.4172e-02 1 1  ON 13
ud_4 -2.7554e-02 1 1  ON 14
ud_5 -5.2232e-02 1 1  ON 15
ud_6 -7.2150e-02 1 1  ON 16
ud_7 -6.0635e-02 1 1  ON 17
ud_8 -4.0419e-02 1 1  ON 18
ud_9 -1.6234e-02 1 1  ON 19
eSi_0 -1.4601e+00 1 1  ON 20
eSi_1 -7.3192e-01 1 1  ON 21
eSi_2 -3.5678e-01 1 1  ON 22
eSi_3 3.7566e-02 1 1  ON 23
eSi_4 3.2732e-01 1 1  ON 24
eSi_5 5.6661e-01 1 1  ON 25
eSi_6 6.7564e-01 1 1  ON 26
eSi_7 5.9570e-01 1 1  ON 27
eSi_8 3.5427e-01 1 1  ON 28
eSi_9 6.2018e-02 1 1  ON 29
  </optVariables>
   Restore the number of walkers to 1, removing 0 walkers.
</opt>
</optimization-report>
  QMC Execution time = 3.0667e+00 secs
  Reusing QMCFixedSampleLinearOptimize
 Using QMCCostFunction::QMCCostFunction

=========================================================
  Start QMCFixedSampleLinearOptimize
  File Root Si.log.s008 append = no 
=========================================================
  Skip QMCDriver::putQMCInfo 
  Resetting Properties of the walkers 1 x 13

=========================================================
  Start VMC
  File Root Si.log.s008 append = no 
=========================================================
Using existing walkers 
  Resetting Properties of the walkers 1 x 13

<vmc function="put">
  qmc_counter=2  my_counter=7
  time step      = 1.5000e-01
  blocks         = 200
  steps          = 2
  substeps       = 5
  current        = 0
  target samples = 2.5600e+05
  walkers/mpi    = 1

  stepsbetweensamples = 1
<parameter name="blocks" condition="int">200</parameter>
<parameter name="blocks_between_recompute" condition="int">0</parameter>
<parameter name="check_properties" condition="int">100</parameter>
<parameter name="checkproperties" condition="int">100</parameter>
<parameter name="current" condition="int">0</parameter>
<parameter name="dmcwalkersperthread" condition="real">2.5000e+02</parameter>
<parameter name="maxcpusecs" condition="real">3.6000e+05</parameter>
<parameter name="record_configs" condition="int">0</parameter>
<parameter name="record_walkers" condition="int">1</parameter>
<parameter name="recordconfigs" condition="int">0</parameter>
<parameter name="recordwalkers" condition="int">1</parameter>
<parameter name="rewind" condition="int">0</parameter>
<parameter name="samples" condition="real">2.5600e+05</parameter>
<parameter name="samplesperthread" condition="real">2.5000e+02</parameter>
<parameter name="steps" condition="int">2</parameter>
<parameter name="stepsbetweensamples" condition="int">1</parameter>
<parameter name="store_configs" condition="int">0</parameter>
<parameter name="storeconfigs" condition="int">0</parameter>
<parameter name="sub_steps" condition="int">5</parameter>
<parameter name="substeps" condition="int">5</parameter>
<parameter name="tau" condition="au">1.5000e-01</parameter>
<parameter name="time_step" condition="au">1.5000e-01</parameter>
<parameter name="timestep" condition="au">1.5000e-01</parameter>
<parameter name="use_drift" condition="string">no</parameter>
<parameter name="usedrift" condition="string">no</parameter>
<parameter name="walkers" condition="int">1</parameter>
<parameter name="warmup_steps" condition="int">0</parameter>
<parameter name="warmupsteps" condition="int">0</parameter>
  DumpConfig==false Nothing (configurations, state) will be saved.
  Walker Samples are dumped every 1 steps.
</vmc>
  EstimatorManagerBase::add replace LocalEnergy estimator.
  EstimatorManagerBase::add replace LocalEnergy estimator.
<optimization-report>
<vmc stage="main" blocks="200">
  Cannot make clones again. Use existing 1 clones
  Initial partition of walkers 0 1 
  Using Particle by Particle moves
  Walker moves without drift
  Total Sample Size   =256000
  Walker distribution on root = 0 1 
  Using Locality Approximation
===== Memory Usage after the buffer registration =====
Available memory on node 0, free + buffers : 86808 MB
Memory footprint by rank 0 on node 0       : 86 MB
==================================================
====================================================
  SimpleFixedNodeBranch::finalize after a VMC block
    QMC counter        = 8
    time step          = 0.15
    reference energy   = -101.907
    reference variance = 2.11643
====================================================
  Execution time = 2.0860e+00
</vmc>
<opt stage="setup">
  <log>
   Reading configurations from h5FileRoot Si.log.s008
  QMCCostFunction is created with 1 threads.
  Using Nonlocal PP in Opt: NonLocalECP
   Number of samples loaded to each thread : 250 
  VMC Eavg = -1.0195e+02
  VMC Evar = 2.2840e+00
  Total weights = 2.5600e+05
  Execution time = 4.1585e-01
  </log>
</opt>
<opt stage="main" walkers="256000">
  <log>

*****************************************
Building overlap and Hamiltonian matrices
*****************************************

Among totally 30 optimized parameters, largest LM parameter change : 4.3837e-02 at parameter 27

******************************************************************************
Init Cost =   2.2840e+00    New Cost =   2.2883e+00  Delta Cost =   4.3443e-03
******************************************************************************

The new set of parameters is valid. Updating the trial wave function!

*****************************************************************************
Applying the update for shift_i =   1.0000e-02     and shift_s =   3.9062e-03
*****************************************************************************
  Execution time = 2.8666e+00
  </log>
  <optVariables href="Si.log.s008.opt.xml">
uu_0 1.6260e-01 1 1  ON 0
uu_1 5.4556e-02 1 1  ON 1
uu_2 9.6908e-03 1 1  ON 2
uu_3 -1.7796e-02 1 1  ON 3
uu_4 -4.8313e-02 1 1  ON 4
uu_5 -6.8431e-02 1 1  ON 5
uu_6 -8.4383e-02 1 1  ON 6
uu_7 -8.2262e-02 1 1  ON 7
uu_8 -6.4831e-02 1 1  ON 8
uu_9 -2.7746e-02 1 1  ON 9
ud_0 2.5082e-01 1 1  ON 10
ud_1 1.2658e-01 1 1  ON 11
ud_2 6.1905e-02 1 1  ON 12
ud_3 1.8443e-02 1 1  ON 13
ud_4 -2.4210e-02 1 1  ON 14
ud_5 -4.9786e-02 1 1  ON 15
ud_6 -6.9115e-02 1 1  ON 16
ud_7 -6.6207e-02 1 1  ON 17
ud_8 -4.9510e-02 1 1  ON 18
ud_9 -1.0437e-02 1 1  ON 19
eSi_0 -1.4870e+00 1 1  ON 20
eSi_1 -7.5978e-01 1 1  ON 21
eSi_2 -3.7659e-01 1 1  ON 22
eSi_3 2.1157e-02 1 1  ON 23
eSi_4 3.2626e-01 1 1  ON 24
eSi_5 5.6276e-01 1 1  ON 25
eSi_6 6.7635e-01 1 1  ON 26
eSi_7 6.3953e-01 1 1  ON 27
eSi_8 3.9326e-01 1 1  ON 28
eSi_9 8.7487e-02 1 1  ON 29
  </optVariables>
   Restore the number of walkers to 1, removing 0 walkers.
</opt>
</optimization-report>
  QMC Execution time = 2.8770e+00 secs
  Reusing QMCFixedSampleLinearOptimize
 Using QMCCostFunction::QMCCostFunction

=========================================================
  Start QMCFixedSampleLinearOptimize
  File Root Si.log.s009 append = no 
=========================================================
  Skip QMCDriver::putQMCInfo 
  Resetting Properties of the walkers 1 x 13

=========================================================
  Start VMC
  File Root Si.log.s009 append = no 
=========================================================
Using existing walkers 
  Resetting Properties of the walkers 1 x 13

<vmc function="put">
  qmc_counter=3  my_counter=8
  time step      = 1.5000e-01
  blocks         = 200
  steps          = 2
  substeps       = 5
  current        = 0
  target samples = 2.5600e+05
  walkers/mpi    = 1

  stepsbetweensamples = 1
<parameter name="blocks" condition="int">200</parameter>
<parameter name="blocks_between_recompute" condition="int">0</parameter>
<parameter name="check_properties" condition="int">100</parameter>
<parameter name="checkproperties" condition="int">100</parameter>
<parameter name="current" condition="int">0</parameter>
<parameter name="dmcwalkersperthread" condition="real">2.5000e+02</parameter>
<parameter name="maxcpusecs" condition="real">3.6000e+05</parameter>
<parameter name="record_configs" condition="int">0</parameter>
<parameter name="record_walkers" condition="int">1</parameter>
<parameter name="recordconfigs" condition="int">0</parameter>
<parameter name="recordwalkers" condition="int">1</parameter>
<parameter name="rewind" condition="int">0</parameter>
<parameter name="samples" condition="real">2.5600e+05</parameter>
<parameter name="samplesperthread" condition="real">2.5000e+02</parameter>
<parameter name="steps" condition="int">2</parameter>
<parameter name="stepsbetweensamples" condition="int">1</parameter>
<parameter name="store_configs" condition="int">0</parameter>
<parameter name="storeconfigs" condition="int">0</parameter>
<parameter name="sub_steps" condition="int">5</parameter>
<parameter name="substeps" condition="int">5</parameter>
<parameter name="tau" condition="au">1.5000e-01</parameter>
<parameter name="time_step" condition="au">1.5000e-01</parameter>
<parameter name="timestep" condition="au">1.5000e-01</parameter>
<parameter name="use_drift" condition="string">no</parameter>
<parameter name="usedrift" condition="string">no</parameter>
<parameter name="walkers" condition="int">1</parameter>
<parameter name="warmup_steps" condition="int">0</parameter>
<parameter name="warmupsteps" condition="int">0</parameter>
  DumpConfig==false Nothing (configurations, state) will be saved.
  Walker Samples are dumped every 1 steps.
</vmc>
  EstimatorManagerBase::add replace LocalEnergy estimator.
  EstimatorManagerBase::add replace LocalEnergy estimator.
<optimization-report>
<vmc stage="main" blocks="200">
  Cannot make clones again. Use existing 1 clones
  Initial partition of walkers 0 1 
  Using Particle by Particle moves
  Walker moves without drift
  Total Sample Size   =256000
  Walker distribution on root = 0 1 
  Using Locality Approximation
===== Memory Usage after the buffer registration =====
Available memory on node 0, free + buffers : 86806 MB
Memory footprint by rank 0 on node 0       : 87 MB
==================================================
====================================================
  SimpleFixedNodeBranch::finalize after a VMC block
    QMC counter        = 9
    time step          = 0.15
    reference energy   = -101.985
    reference variance = 2.30689
====================================================
  Execution time = 2.0321e+00
</vmc>
<opt stage="setup">
  <log>
   Reading configurations from h5FileRoot Si.log.s009
  QMCCostFunction is created with 1 threads.
  Using Nonlocal PP in Opt: NonLocalECP
   Number of samples loaded to each thread : 250 
  VMC Eavg = -1.0195e+02
  VMC Evar = 2.2824e+00
  Total weights = 2.5600e+05
  Execution time = 3.7335e-01
  </log>
</opt>
<opt stage="main" walkers="256000">
  <log>

*****************************************
Building overlap and Hamiltonian matrices
*****************************************

Among totally 30 optimized parameters, largest LM parameter change : 3.4712e-02 at parameter 28

******************************************************************************
Init Cost =   2.2824e+00    New Cost =   2.2839e+00  Delta Cost =   1.5474e-03
******************************************************************************

The new set of parameters is valid. Updating the trial wave function!

*****************************************************************************
Applying the update for shift_i =   1.0000e-02     and shift_s =   3.9062e-03
*****************************************************************************
  Execution time = 2.7424e+00
  </log>
  <optVariables href="Si.log.s009.opt.xml">
uu_0 1.5746e-01 1 1  ON 0
uu_1 4.9177e-02 1 1  ON 1
uu_2 4.0257e-03 1 1  ON 2
uu_3 -2.3907e-02 1 1  ON 3
uu_4 -5.4827e-02 1 1  ON 4
uu_5 -7.4273e-02 1 1  ON 5
uu_6 -9.1206e-02 1 1  ON 6
uu_7 -8.7116e-02 1 1  ON 7
uu_8 -6.4331e-02 1 1  ON 8
uu_9 -3.4735e-02 1 1  ON 9
ud_0 2.4578e-01 1 1  ON 10
ud_1 1.2156e-01 1 1  ON 11
ud_2 5.6614e-02 1 1  ON 12
ud_3 1.4911e-02 1 1  ON 13
ud_4 -2.8436e-02 1 1  ON 14
ud_5 -5.6212e-02 1 1  ON 15
ud_6 -7.6424e-02 1 1  ON 16
ud_7 -7.4121e-02 1 1  ON 17
ud_8 -5.5245e-02 1 1  ON 18
ud_9 -2.1479e-02 1 1  ON 19
eSi_0 -1.5052e+00 1 1  ON 20
eSi_1 -7.7816e-01 1 1  ON 21
eSi_2 -3.9591e-01 1 1  ON 22
eSi_3 -1.1398e-03 1 1  ON 23
eSi_4 3.1382e-01 1 1  ON 24
eSi_5 5.5852e-01 1 1  ON 25
eSi_6 6.8355e-01 1 1  ON 26
eSi_7 6.5744e-01 1 1  ON 27
eSi_8 4.2797e-01 1 1  ON 28
eSi_9 1.1708e-01 1 1  ON 29
  </optVariables>
   Restore the number of walkers to 1, removing 0 walkers.
</opt>
</optimization-report>
  QMC Execution time = 2.7526e+00 secs
  Reusing QMCFixedSampleLinearOptimize
 Using QMCCostFunction::QMCCostFunction

=========================================================
  Start QMCFixedSampleLinearOptimize
  File Root Si.log.s010 append = no 
=========================================================
  Skip QMCDriver::putQMCInfo 
  Resetting Properties of the walkers 1 x 13

=========================================================
  Start VMC
  File Root Si.log.s010 append = no 
=========================================================
Using existing walkers 
  Resetting Properties of the walkers 1 x 13

<vmc function="put">
  qmc_counter=4  my_counter=9
  time step      = 1.5000e-01
  blocks         = 200
  steps          = 2
  substeps       = 5
  current        = 0
  target samples = 2.5600e+05
  walkers/mpi    = 1

  stepsbetweensamples = 1
<parameter name="blocks" condition="int">200</parameter>
<parameter name="blocks_between_recompute" condition="int">0</parameter>
<parameter name="check_properties" condition="int">100</parameter>
<parameter name="checkproperties" condition="int">100</parameter>
<parameter name="current" condition="int">0</parameter>
<parameter name="dmcwalkersperthread" condition="real">2.5000e+02</parameter>
<parameter name="maxcpusecs" condition="real">3.6000e+05</parameter>
<parameter name="record_configs" condition="int">0</parameter>
<parameter name="record_walkers" condition="int">1</parameter>
<parameter name="recordconfigs" condition="int">0</parameter>
<parameter name="recordwalkers" condition="int">1</parameter>
<parameter name="rewind" condition="int">0</parameter>
<parameter name="samples" condition="real">2.5600e+05</parameter>
<parameter name="samplesperthread" condition="real">2.5000e+02</parameter>
<parameter name="steps" condition="int">2</parameter>
<parameter name="stepsbetweensamples" condition="int">1</parameter>
<parameter name="store_configs" condition="int">0</parameter>
<parameter name="storeconfigs" condition="int">0</parameter>
<parameter name="sub_steps" condition="int">5</parameter>
<parameter name="substeps" condition="int">5</parameter>
<parameter name="tau" condition="au">1.5000e-01</parameter>
<parameter name="time_step" condition="au">1.5000e-01</parameter>
<parameter name="timestep" condition="au">1.5000e-01</parameter>
<parameter name="use_drift" condition="string">no</parameter>
<parameter name="usedrift" condition="string">no</parameter>
<parameter name="walkers" condition="int">1</parameter>
<parameter name="warmup_steps" condition="int">0</parameter>
<parameter name="warmupsteps" condition="int">0</parameter>
  DumpConfig==false Nothing (configurations, state) will be saved.
  Walker Samples are dumped every 1 steps.
</vmc>
  EstimatorManagerBase::add replace LocalEnergy estimator.
  EstimatorManagerBase::add replace LocalEnergy estimator.
<optimization-report>
<vmc stage="main" blocks="200">
  Cannot make clones again. Use existing 1 clones
  Initial partition of walkers 0 1 
  Using Particle by Particle moves
  Walker moves without drift
  Total Sample Size   =256000
  Walker distribution on root = 0 1 
  Using Locality Approximation
===== Memory Usage after the buffer registration =====
Available memory on node 0, free + buffers : 86804 MB
Memory footprint by rank 0 on node 0       : 89 MB
==================================================
====================================================
  SimpleFixedNodeBranch::finalize after a VMC block
    QMC counter        = 10
    time step          = 0.15
    reference energy   = -101.996
    reference variance = 2.13109
====================================================
  Execution time = 2.0630e+00
</vmc>
<opt stage="setup">
  <log>
   Reading configurations from h5FileRoot Si.log.s010
  QMCCostFunction is created with 1 threads.
  Using Nonlocal PP in Opt: NonLocalECP
   Number of samples loaded to each thread : 250 
  VMC Eavg = -1.0195e+02
  VMC Evar = 2.2966e+00
  Total weights = 2.5600e+05
  Execution time = 3.3947e-01
  </log>
</opt>
<opt stage="main" walkers="256000">
  <log>

*****************************************
Building overlap and Hamiltonian matrices
*****************************************

Among totally 30 optimized parameters, largest LM parameter change : 3.4311e-02 at parameter 28

******************************************************************************
Init Cost =   2.2966e+00    New Cost =   2.2961e+00  Delta Cost =  -4.4904e-04
******************************************************************************

The new set of parameters is valid. Updating the trial wave function!

*****************************************************************************
Applying the update for shift_i =   1.0000e-02     and shift_s =   3.9062e-03
*****************************************************************************
  Execution time = 2.7150e+00
  </log>
  <optVariables href="Si.log.s010.opt.xml">
uu_0 1.5416e-01 1 1  ON 0
uu_1 4.6272e-02 1 1  ON 1
uu_2 5.9263e-04 1 1  ON 2
uu_3 -2.7493e-02 1 1  ON 3
uu_4 -5.7113e-02 1 1  ON 4
uu_5 -7.7386e-02 1 1  ON 5
uu_6 -9.0028e-02 1 1  ON 6
uu_7 -8.8553e-02 1 1  ON 7
uu_8 -7.2801e-02 1 1  ON 8
uu_9 -4.8557e-02 1 1  ON 9
ud_0 2.5486e-01 1 1  ON 10
ud_1 1.2994e-01 1 1  ON 11
ud_2 6.5549e-02 1 1  ON 12
ud_3 2.3410e-02 1 1  ON 13
ud_4 -1.9415e-02 1 1  ON 14
ud_5 -4.7175e-02 1 1  ON 15
ud_6 -7.2102e-02 1 1  ON 16
ud_7 -7.6931e-02 1 1  ON 17
ud_8 -6.2391e-02 1 1  ON 18
ud_9 -3.6159e-02 1 1  ON 19
eSi_0 -1.5223e+00 1 1  ON 20
eSi_1 -7.9308e-01 1 1  ON 21
eSi_2 -4.1115e-01 1 1  ON 22
eSi_3 -1.0815e-02 1 1  ON 23
eSi_4 2.9953e-01 1 1  ON 24
eSi_5 5.5119e-01 1 1  ON 25
eSi_6 6.8588e-01 1 1  ON 26
eSi_7 6.6228e-01 1 1  ON 27
eSi_8 4.6228e-01 1 1  ON 28
eSi_9 1.4475e-01 1 1  ON 29
  </optVariables>
   Restore the number of walkers to 1, removing 0 walkers.
</opt>
</optimization-report>
  QMC Execution time = 2.7244e+00 secs
Loop execution max-interations = 10
  Reusing QMCFixedSampleLinearOptimize
 Using QMCCostFunction::QMCCostFunction

=========================================================
  Start QMCFixedSampleLinearOptimize
  File Root Si.log.s011 append = no 
=========================================================
  Skip QMCDriver::putQMCInfo 
  Resetting Properties of the walkers 1 x 13

=========================================================
  Start VMC
  File Root Si.log.s011 append = no 
=========================================================
  Using the current 1 walkers.
  Total number of walkers: 1.0240e+03
  Total weight: 1.0240e+03
  Resetting Properties of the walkers 1 x 13

<vmc function="put">
  qmc_counter=0  my_counter=10
  time step      = 1.5000e-01
  blocks         = 200
  steps          = 3
  substeps       = 5
  current        = 0
  target samples = 5.1200e+05
  walkers/mpi    = 1

  stepsbetweensamples = 1
<parameter name="blocks" condition="int">200</parameter>
<parameter name="blocks_between_recompute" condition="int">0</parameter>
<parameter name="check_properties" condition="int">100</parameter>
<parameter name="checkproperties" condition="int">100</parameter>
<parameter name="current" condition="int">0</parameter>
<parameter name="dmcwalkersperthread" condition="real">5.0000e+02</parameter>
<parameter name="maxcpusecs" condition="real">3.6000e+05</parameter>
<parameter name="record_configs" condition="int">0</parameter>
<parameter name="record_walkers" condition="int">1</parameter>
<parameter name="recordconfigs" condition="int">0</parameter>
<parameter name="recordwalkers" condition="int">1</parameter>
<parameter name="rewind" condition="int">0</parameter>
<parameter name="samples" condition="real">5.1200e+05</parameter>
<parameter name="samplesperthread" condition="real">5.0000e+02</parameter>
<parameter name="steps" condition="int">3</parameter>
<parameter name="stepsbetweensamples" condition="int">1</parameter>
<parameter name="store_configs" condition="int">0</parameter>
<parameter name="storeconfigs" condition="int">0</parameter>
<parameter name="sub_steps" condition="int">5</parameter>
<parameter name="substeps" condition="int">5</parameter>
<parameter name="tau" condition="au">1.5000e-01</parameter>
<parameter name="time_step" condition="au">1.5000e-01</parameter>
<parameter name="timestep" condition="au">1.5000e-01</parameter>
<parameter name="use_drift" condition="string">no</parameter>
<parameter name="usedrift" condition="string">no</parameter>
<parameter name="walkers" condition="int">1</parameter>
<parameter name="warmup_steps" condition="int">0</parameter>
<parameter name="warmupsteps" condition="int">0</parameter>
  DumpConfig==false Nothing (configurations, state) will be saved.
  Walker Samples are dumped every 1 steps.
</vmc>
  EstimatorManagerBase::add replace LocalEnergy estimator.
  EstimatorManagerBase::add replace LocalEnergy estimator.
<optimization-report>
<vmc stage="main" blocks="200">
  Cannot make clones again. Use existing 1 clones
  Initial partition of walkers 0 1 
  Using Particle by Particle moves
  Walker moves without drift
  Total Sample Size   =512000
  Walker distribution on root = 0 1 
  Using Locality Approximation
===== Memory Usage after the buffer registration =====
Available memory on node 0, free + buffers : 86802 MB
Memory footprint by rank 0 on node 0       : 91 MB
==================================================
====================================================
  SimpleFixedNodeBranch::finalize after a VMC block
    QMC counter        = 11
    time step          = 0.15
    reference energy   = -101.9
    reference variance = 2.06002
====================================================
  Execution time = 2.4693e+00
</vmc>
<opt stage="setup">
  <log>
   Reading configurations from h5FileRoot Si.log.s011
  QMCCostFunction is created with 1 threads.
  Using Nonlocal PP in Opt: NonLocalECP
   Number of samples loaded to each thread : 500 
  VMC Eavg = -1.0195e+02
  VMC Evar = 2.2473e+00
  Total weights = 5.1200e+05
  Execution time = 6.2201e-01
  </log>
</opt>
<opt stage="main" walkers="512000">
  <log>

*****************************************
Building overlap and Hamiltonian matrices
*****************************************

Among totally 30 optimized parameters, largest LM parameter change : 2.4806e-02 at parameter 28

******************************************************************************
Init Cost =  -9.6740e+01    New Cost =  -9.6740e+01  Delta Cost =  -9.6172e-05
******************************************************************************

The new set of parameters is valid. Updating the trial wave function!

*****************************************************************************
Applying the update for shift_i =   1.0000e-02     and shift_s =   3.9062e-03
*****************************************************************************
  Execution time = 3.6924e+00
  </log>
  <optVariables href="Si.log.s011.opt.xml">
uu_0 1.6494e-01 1 1  ON 0
uu_1 5.6760e-02 1 1  ON 1
uu_2 1.2454e-02 1 1  ON 2
uu_3 -1.5959e-02 1 1  ON 3
uu_4 -4.7249e-02 1 1  ON 4
uu_5 -6.8798e-02 1 1  ON 5
uu_6 -8.6529e-02 1 1  ON 6
uu_7 -8.9058e-02 1 1  ON 7
uu_8 -7.3225e-02 1 1  ON 8
uu_9 -4.6513e-02 1 1  ON 9
ud_0 2.5351e-01 1 1  ON 10
ud_1 1.2870e-01 1 1  ON 11
ud_2 6.4570e-02 1 1  ON 12
ud_3 2.1747e-02 1 1  ON 13
ud_4 -2.2015e-02 1 1  ON 14
ud_5 -4.9092e-02 1 1  ON 15
ud_6 -7.1748e-02 1 1  ON 16
ud_7 -7.3617e-02 1 1  ON 17
ud_8 -5.8480e-02 1 1  ON 18
ud_9 -2.8334e-02 1 1  ON 19
eSi_0 -1.5374e+00 1 1  ON 20
eSi_1 -8.0834e-01 1 1  ON 21
eSi_2 -4.2906e-01 1 1  ON 22
eSi_3 -2.7446e-02 1 1  ON 23
eSi_4 2.9129e-01 1 1  ON 24
eSi_5 5.5185e-01 1 1  ON 25
eSi_6 6.9221e-01 1 1  ON 26
eSi_7 6.8078e-01 1 1  ON 27
eSi_8 4.8708e-01 1 1  ON 28
eSi_9 1.6866e-01 1 1  ON 29
  </optVariables>
   Restore the number of walkers to 1, removing 0 walkers.
</opt>
</optimization-report>
  QMC Execution time = 3.7026e+00 secs
  Reusing QMCFixedSampleLinearOptimize
 Using QMCCostFunction::QMCCostFunction

=========================================================
  Start QMCFixedSampleLinearOptimize
  File Root Si.log.s012 append = no 
=========================================================
  Skip QMCDriver::putQMCInfo 
  Resetting Properties of the walkers 1 x 13

=========================================================
  Start VMC
  File Root Si.log.s012 append = no 
=========================================================
Using existing walkers 
  Resetting Properties of the walkers 1 x 13

<vmc function="put">
  qmc_counter=1  my_counter=11
  time step      = 1.5000e-01
  blocks         = 200
  steps          = 3
  substeps       = 5
  current        = 0
  target samples = 5.1200e+05
  walkers/mpi    = 1

  stepsbetweensamples = 1
<parameter name="blocks" condition="int">200</parameter>
<parameter name="blocks_between_recompute" condition="int">0</parameter>
<parameter name="check_properties" condition="int">100</parameter>
<parameter name="checkproperties" condition="int">100</parameter>
<parameter name="current" condition="int">0</parameter>
<parameter name="dmcwalkersperthread" condition="real">5.0000e+02</parameter>
<parameter name="maxcpusecs" condition="real">3.6000e+05</parameter>
<parameter name="record_configs" condition="int">0</parameter>
<parameter name="record_walkers" condition="int">1</parameter>
<parameter name="recordconfigs" condition="int">0</parameter>
<parameter name="recordwalkers" condition="int">1</parameter>
<parameter name="rewind" condition="int">0</parameter>
<parameter name="samples" condition="real">5.1200e+05</parameter>
<parameter name="samplesperthread" condition="real">5.0000e+02</parameter>
<parameter name="steps" condition="int">3</parameter>
<parameter name="stepsbetweensamples" condition="int">1</parameter>
<parameter name="store_configs" condition="int">0</parameter>
<parameter name="storeconfigs" condition="int">0</parameter>
<parameter name="sub_steps" condition="int">5</parameter>
<parameter name="substeps" condition="int">5</parameter>
<parameter name="tau" condition="au">1.5000e-01</parameter>
<parameter name="time_step" condition="au">1.5000e-01</parameter>
<parameter name="timestep" condition="au">1.5000e-01</parameter>
<parameter name="use_drift" condition="string">no</parameter>
<parameter name="usedrift" condition="string">no</parameter>
<parameter name="walkers" condition="int">1</parameter>
<parameter name="warmup_steps" condition="int">0</parameter>
<parameter name="warmupsteps" condition="int">0</parameter>
  DumpConfig==false Nothing (configurations, state) will be saved.
  Walker Samples are dumped every 1 steps.
</vmc>
[...]
</vmc>
<opt stage="setup">
  <log>
   Reading configurations from h5FileRoot Si.log.s017
  QMCCostFunction is created with 1 threads.
  Using Nonlocal PP in Opt: NonLocalECP
   Number of samples loaded to each thread : 500 
  VMC Eavg = -1.0195e+02
  VMC Evar = 2.2830e+00
  Total weights = 5.1200e+05
  Execution time = 4.8691e-01
  </log>
</opt>
<opt stage="main" walkers="512000">
  <log>

*****************************************
Building overlap and Hamiltonian matrices
*****************************************

Among totally 30 optimized parameters, largest LM parameter change : 2.7511e-02 at parameter 29

******************************************************************************
Init Cost =  -9.6740e+01    New Cost =  -9.6739e+01  Delta Cost =   3.3053e-04
******************************************************************************

The new set of parameters is valid. Updating the trial wave function!

*****************************************************************************
Applying the update for shift_i =   1.0000e-02     and shift_s =   3.9062e-03
*****************************************************************************
  Execution time = 3.3333e+00
  </log>
  <optVariables href="Si.log.s017.opt.xml">
uu_0 1.8261e-01 1 1  ON 0
uu_1 7.3921e-02 1 1  ON 1
uu_2 2.8505e-02 1 1  ON 2
uu_3 -3.8094e-05 1 1  ON 3
uu_4 -3.2016e-02 1 1  ON 4
uu_5 -5.3781e-02 1 1  ON 5
uu_6 -7.3743e-02 1 1  ON 6
uu_7 -7.7471e-02 1 1  ON 7
uu_8 -6.9369e-02 1 1  ON 8
uu_9 -4.1482e-02 1 1  ON 9
ud_0 2.6959e-01 1 1  ON 10
ud_1 1.4462e-01 1 1  ON 11
ud_2 7.9637e-02 1 1  ON 12
ud_3 3.6349e-02 1 1  ON 13
ud_4 -7.0663e-03 1 1  ON 14
ud_5 -3.5066e-02 1 1  ON 15
ud_6 -5.9434e-02 1 1  ON 16
ud_7 -6.5830e-02 1 1  ON 17
ud_8 -6.1722e-02 1 1  ON 18
ud_9 -3.6011e-02 1 1  ON 19
eSi_0 -1.6059e+00 1 1  ON 20
eSi_1 -8.7409e-01 1 1  ON 21
eSi_2 -4.8785e-01 1 1  ON 22
eSi_3 -7.6951e-02 1 1  ON 23
eSi_4 2.4898e-01 1 1  ON 24
eSi_5 5.1835e-01 1 1  ON 25
eSi_6 6.8922e-01 1 1  ON 26
eSi_7 7.2542e-01 1 1  ON 27
eSi_8 6.1204e-01 1 1  ON 28
eSi_9 3.2813e-01 1 1  ON 29
  </optVariables>
   Restore the number of walkers to 1, removing 0 walkers.
</opt>
</optimization-report>
  QMC Execution time = 3.3438e+00 secs
  Reusing QMCFixedSampleLinearOptimize
 Using QMCCostFunction::QMCCostFunction

=========================================================
  Start QMCFixedSampleLinearOptimize
  File Root Si.log.s018 append = no 
=========================================================
  Skip QMCDriver::putQMCInfo 
  Resetting Properties of the walkers 1 x 13

=========================================================
  Start VMC
  File Root Si.log.s018 append = no 
=========================================================
Using existing walkers 
  Resetting Properties of the walkers 1 x 13

<vmc function="put">
  qmc_counter=7  my_counter=17
  time step      = 1.5000e-01
  blocks         = 200
  steps          = 3
  substeps       = 5
  current        = 0
  target samples = 5.1200e+05
  walkers/mpi    = 1

  stepsbetweensamples = 1
<parameter name="blocks" condition="int">200</parameter>
<parameter name="blocks_between_recompute" condition="int">0</parameter>
<parameter name="check_properties" condition="int">100</parameter>
<parameter name="checkproperties" condition="int">100</parameter>
<parameter name="current" condition="int">0</parameter>
<parameter name="dmcwalkersperthread" condition="real">5.0000e+02</parameter>
<parameter name="maxcpusecs" condition="real">3.6000e+05</parameter>
<parameter name="record_configs" condition="int">0</parameter>
<parameter name="record_walkers" condition="int">1</parameter>
<parameter name="recordconfigs" condition="int">0</parameter>
<parameter name="recordwalkers" condition="int">1</parameter>
<parameter name="rewind" condition="int">0</parameter>
<parameter name="samples" condition="real">5.1200e+05</parameter>
<parameter name="samplesperthread" condition="real">5.0000e+02</parameter>
<parameter name="steps" condition="int">3</parameter>
<parameter name="stepsbetweensamples" condition="int">1</parameter>
<parameter name="store_configs" condition="int">0</parameter>
<parameter name="storeconfigs" condition="int">0</parameter>
<parameter name="sub_steps" condition="int">5</parameter>
<parameter name="substeps" condition="int">5</parameter>
<parameter name="tau" condition="au">1.5000e-01</parameter>
<parameter name="time_step" condition="au">1.5000e-01</parameter>
<parameter name="timestep" condition="au">1.5000e-01</parameter>
<parameter name="use_drift" condition="string">no</parameter>
<parameter name="usedrift" condition="string">no</parameter>
<parameter name="walkers" condition="int">1</parameter>
<parameter name="warmup_steps" condition="int">0</parameter>
<parameter name="warmupsteps" condition="int">0</parameter>
  DumpConfig==false Nothing (configurations, state) will be saved.
  Walker Samples are dumped every 1 steps.
</vmc>
  EstimatorManagerBase::add replace LocalEnergy estimator.
  EstimatorManagerBase::add replace LocalEnergy estimator.
<optimization-report>
<vmc stage="main" blocks="200">
  Cannot make clones again. Use existing 1 clones
  Initial partition of walkers 0 1 
  Using Particle by Particle moves
  Walker moves without drift
  Total Sample Size   =512000
  Walker distribution on root = 0 1 
  Using Locality Approximation
===== Memory Usage after the buffer registration =====
Available memory on node 0, free + buffers : 86746 MB
Memory footprint by rank 0 on node 0       : 104 MB
==================================================
====================================================
  SimpleFixedNodeBranch::finalize after a VMC block
    QMC counter        = 18
    time step          = 0.15
    reference energy   = -102.019
    reference variance = 2.81039
====================================================
  Execution time = 2.1555e+00
</vmc>
<opt stage="setup">
  <log>
   Reading configurations from h5FileRoot Si.log.s018
  QMCCostFunction is created with 1 threads.
  Using Nonlocal PP in Opt: NonLocalECP
   Number of samples loaded to each thread : 500 
  VMC Eavg = -1.0195e+02
  VMC Evar = 2.3024e+00
  Total weights = 5.1200e+05
  Execution time = 4.9013e-01
  </log>
</opt>
<opt stage="main" walkers="512000">
  <log>

*****************************************
Building overlap and Hamiltonian matrices
*****************************************

Among totally 30 optimized parameters, largest LM parameter change : 1.9901e-02 at parameter 27

******************************************************************************
Init Cost =  -9.6739e+01    New Cost =  -9.6740e+01  Delta Cost =  -3.8622e-04
******************************************************************************

The new set of parameters is valid. Updating the trial wave function!

*****************************************************************************
Applying the update for shift_i =   1.0000e-02     and shift_s =   3.9062e-03
*****************************************************************************
  Execution time = 3.1164e+00
  </log>
  <optVariables href="Si.log.s018.opt.xml">
uu_0 1.8329e-01 1 1  ON 0
uu_1 7.5338e-02 1 1  ON 1
uu_2 2.9124e-02 1 1  ON 2
uu_3 2.8878e-04 1 1  ON 3
uu_4 -3.1480e-02 1 1  ON 4
uu_5 -5.1820e-02 1 1  ON 5
uu_6 -7.2315e-02 1 1  ON 6
uu_7 -7.6256e-02 1 1  ON 7
uu_8 -7.1470e-02 1 1  ON 8
uu_9 -4.2448e-02 1 1  ON 9
ud_0 2.7318e-01 1 1  ON 10
ud_1 1.4887e-01 1 1  ON 11
ud_2 8.4291e-02 1 1  ON 12
ud_3 4.0838e-02 1 1  ON 13
ud_4 -3.2826e-03 1 1  ON 14
ud_5 -3.1313e-02 1 1  ON 15
ud_6 -5.4844e-02 1 1  ON 16
ud_7 -6.2625e-02 1 1  ON 17
ud_8 -5.9443e-02 1 1  ON 18
ud_9 -4.5992e-02 1 1  ON 19
eSi_0 -1.6170e+00 1 1  ON 20
eSi_1 -8.8658e-01 1 1  ON 21
eSi_2 -5.0041e-01 1 1  ON 22
eSi_3 -8.8746e-02 1 1  ON 23
eSi_4 2.3933e-01 1 1  ON 24
eSi_5 5.1619e-01 1 1  ON 25
eSi_6 6.9530e-01 1 1  ON 26
eSi_7 7.4532e-01 1 1  ON 27
eSi_8 6.3150e-01 1 1  ON 28
eSi_9 3.3704e-01 1 1  ON 29
  </optVariables>
   Restore the number of walkers to 1, removing 0 walkers.
</opt>
</optimization-report>
  QMC Execution time = 3.1269e+00 secs
  Reusing QMCFixedSampleLinearOptimize
 Using QMCCostFunction::QMCCostFunction

=========================================================
  Start QMCFixedSampleLinearOptimize
  File Root Si.log.s019 append = no 
=========================================================
  Skip QMCDriver::putQMCInfo 
  Resetting Properties of the walkers 1 x 13

=========================================================
  Start VMC
  File Root Si.log.s019 append = no 
=========================================================
Using existing walkers 
  Resetting Properties of the walkers 1 x 13

<vmc function="put">
  qmc_counter=8  my_counter=18
  time step      = 1.5000e-01
  blocks         = 200
  steps          = 3
  substeps       = 5
  current        = 0
  target samples = 5.1200e+05
  walkers/mpi    = 1

  stepsbetweensamples = 1
<parameter name="blocks" condition="int">200</parameter>
<parameter name="blocks_between_recompute" condition="int">0</parameter>
<parameter name="check_properties" condition="int">100</parameter>
<parameter name="checkproperties" condition="int">100</parameter>
<parameter name="current" condition="int">0</parameter>
<parameter name="dmcwalkersperthread" condition="real">5.0000e+02</parameter>
<parameter name="maxcpusecs" condition="real">3.6000e+05</parameter>
<parameter name="record_configs" condition="int">0</parameter>
<parameter name="record_walkers" condition="int">1</parameter>
<parameter name="recordconfigs" condition="int">0</parameter>
<parameter name="recordwalkers" condition="int">1</parameter>
<parameter name="rewind" condition="int">0</parameter>
<parameter name="samples" condition="real">5.1200e+05</parameter>
<parameter name="samplesperthread" condition="real">5.0000e+02</parameter>
<parameter name="steps" condition="int">3</parameter>
<parameter name="stepsbetweensamples" condition="int">1</parameter>
<parameter name="store_configs" condition="int">0</parameter>
<parameter name="storeconfigs" condition="int">0</parameter>
<parameter name="sub_steps" condition="int">5</parameter>
<parameter name="substeps" condition="int">5</parameter>
<parameter name="tau" condition="au">1.5000e-01</parameter>
<parameter name="time_step" condition="au">1.5000e-01</parameter>
<parameter name="timestep" condition="au">1.5000e-01</parameter>
<parameter name="use_drift" condition="string">no</parameter>
<parameter name="usedrift" condition="string">no</parameter>
<parameter name="walkers" condition="int">1</parameter>
<parameter name="warmup_steps" condition="int">0</parameter>
<parameter name="warmupsteps" condition="int">0</parameter>
  DumpConfig==false Nothing (configurations, state) will be saved.
  Walker Samples are dumped every 1 steps.
</vmc>
  EstimatorManagerBase::add replace LocalEnergy estimator.
  EstimatorManagerBase::add replace LocalEnergy estimator.
<optimization-report>
<vmc stage="main" blocks="200">
  Cannot make clones again. Use existing 1 clones
  Initial partition of walkers 0 1 
  Using Particle by Particle moves
  Walker moves without drift
  Total Sample Size   =512000
  Walker distribution on root = 0 1 
  Using Locality Approximation
===== Memory Usage after the buffer registration =====
Available memory on node 0, free + buffers : 86744 MB
Memory footprint by rank 0 on node 0       : 105 MB
==================================================
====================================================
  SimpleFixedNodeBranch::finalize after a VMC block
    QMC counter        = 19
    time step          = 0.15
    reference energy   = -101.957
    reference variance = 2.20276
====================================================
  Execution time = 2.1481e+00
</vmc>
<opt stage="setup">
  <log>
   Reading configurations from h5FileRoot Si.log.s019
  QMCCostFunction is created with 1 threads.
  Using Nonlocal PP in Opt: NonLocalECP
   Number of samples loaded to each thread : 500 
  VMC Eavg = -1.0195e+02
  VMC Evar = 2.2488e+00
  Total weights = 5.1200e+05
  Execution time = 4.9095e-01
  </log>
</opt>
<opt stage="main" walkers="512000">
  <log>

*****************************************
Building overlap and Hamiltonian matrices
*****************************************

Among totally 30 optimized parameters, largest LM parameter change : 1.4849e-02 at parameter 29

******************************************************************************
Init Cost =  -9.6741e+01    New Cost =  -9.6740e+01  Delta Cost =   4.3013e-04
******************************************************************************

The new set of parameters is valid. Updating the trial wave function!

*****************************************************************************
Applying the update for shift_i =   1.0000e-02     and shift_s =   3.9062e-03
*****************************************************************************
  Execution time = 3.1114e+00
  </log>
  <optVariables href="Si.log.s019.opt.xml">
uu_0 1.8655e-01 1 1  ON 0
uu_1 7.7802e-02 1 1  ON 1
uu_2 3.2298e-02 1 1  ON 2
uu_3 3.1312e-03 1 1  ON 3
uu_4 -2.8098e-02 1 1  ON 4
uu_5 -4.9460e-02 1 1  ON 5
uu_6 -6.8350e-02 1 1  ON 6
uu_7 -7.5752e-02 1 1  ON 7
uu_8 -6.8188e-02 1 1  ON 8
uu_9 -4.5483e-02 1 1  ON 9
ud_0 2.7113e-01 1 1  ON 10
ud_1 1.4610e-01 1 1  ON 11
ud_2 8.0682e-02 1 1  ON 12
ud_3 3.6114e-02 1 1  ON 13
ud_4 -8.0184e-03 1 1  ON 14
ud_5 -3.7523e-02 1 1  ON 15
ud_6 -6.1474e-02 1 1  ON 16
ud_7 -6.5783e-02 1 1  ON 17
ud_8 -6.2171e-02 1 1  ON 18
ud_9 -3.4617e-02 1 1  ON 19
eSi_0 -1.6294e+00 1 1  ON 20
eSi_1 -8.9641e-01 1 1  ON 21
eSi_2 -5.0716e-01 1 1  ON 22
eSi_3 -9.1606e-02 1 1  ON 23
eSi_4 2.3777e-01 1 1  ON 24
eSi_5 5.1281e-01 1 1  ON 25
eSi_6 6.9316e-01 1 1  ON 26
eSi_7 7.4592e-01 1 1  ON 27
eSi_8 6.4395e-01 1 1  ON 28
eSi_9 3.5189e-01 1 1  ON 29
  </optVariables>
   Restore the number of walkers to 1, removing 0 walkers.
</opt>
</optimization-report>
  QMC Execution time = 3.1220e+00 secs
  Reusing QMCFixedSampleLinearOptimize
 Using QMCCostFunction::QMCCostFunction

=========================================================
  Start QMCFixedSampleLinearOptimize
  File Root Si.log.s020 append = no 
=========================================================
  Skip QMCDriver::putQMCInfo 
  Resetting Properties of the walkers 1 x 13

=========================================================
  Start VMC
  File Root Si.log.s020 append = no 
=========================================================
Using existing walkers 
  Resetting Properties of the walkers 1 x 13

<vmc function="put">
  qmc_counter=9  my_counter=19
  time step      = 1.5000e-01
  blocks         = 200
  steps          = 3
  substeps       = 5
  current        = 0
  target samples = 5.1200e+05
  walkers/mpi    = 1

  stepsbetweensamples = 1
<parameter name="blocks" condition="int">200</parameter>
<parameter name="blocks_between_recompute" condition="int">0</parameter>
<parameter name="check_properties" condition="int">100</parameter>
<parameter name="checkproperties" condition="int">100</parameter>
<parameter name="current" condition="int">0</parameter>
<parameter name="dmcwalkersperthread" condition="real">5.0000e+02</parameter>
<parameter name="maxcpusecs" condition="real">3.6000e+05</parameter>
<parameter name="record_configs" condition="int">0</parameter>
<parameter name="record_walkers" condition="int">1</parameter>
<parameter name="recordconfigs" condition="int">0</parameter>
<parameter name="recordwalkers" condition="int">1</parameter>
<parameter name="rewind" condition="int">0</parameter>
<parameter name="samples" condition="real">5.1200e+05</parameter>
<parameter name="samplesperthread" condition="real">5.0000e+02</parameter>
<parameter name="steps" condition="int">3</parameter>
<parameter name="stepsbetweensamples" condition="int">1</parameter>
<parameter name="store_configs" condition="int">0</parameter>
<parameter name="storeconfigs" condition="int">0</parameter>
<parameter name="sub_steps" condition="int">5</parameter>
<parameter name="substeps" condition="int">5</parameter>
<parameter name="tau" condition="au">1.5000e-01</parameter>
<parameter name="time_step" condition="au">1.5000e-01</parameter>
<parameter name="timestep" condition="au">1.5000e-01</parameter>
<parameter name="use_drift" condition="string">no</parameter>
<parameter name="usedrift" condition="string">no</parameter>
<parameter name="walkers" condition="int">1</parameter>
<parameter name="warmup_steps" condition="int">0</parameter>
<parameter name="warmupsteps" condition="int">0</parameter>
  DumpConfig==false Nothing (configurations, state) will be saved.
  Walker Samples are dumped every 1 steps.
</vmc>
  EstimatorManagerBase::add replace LocalEnergy estimator.
  EstimatorManagerBase::add replace LocalEnergy estimator.
<optimization-report>
<vmc stage="main" blocks="200">
  Cannot make clones again. Use existing 1 clones
  Initial partition of walkers 0 1 
  Using Particle by Particle moves
  Walker moves without drift
  Total Sample Size   =512000
  Walker distribution on root = 0 1 
  Using Locality Approximation
===== Memory Usage after the buffer registration =====
Available memory on node 0, free + buffers : 86741 MB
Memory footprint by rank 0 on node 0       : 107 MB
==================================================
====================================================
  SimpleFixedNodeBranch::finalize after a VMC block
    QMC counter        = 20
    time step          = 0.15
    reference energy   = -101.957
    reference variance = 2.40151
====================================================
  Execution time = 2.2203e+00
</vmc>
<opt stage="setup">
  <log>
   Reading configurations from h5FileRoot Si.log.s020
  QMCCostFunction is created with 1 threads.
  Using Nonlocal PP in Opt: NonLocalECP
   Number of samples loaded to each thread : 500 
  VMC Eavg = -1.0195e+02
  VMC Evar = 2.3708e+00
  Total weights = 5.1200e+05
  Execution time = 4.8376e-01
  </log>
</opt>
<opt stage="main" walkers="512000">
  <log>

*****************************************
Building overlap and Hamiltonian matrices
*****************************************

Among totally 30 optimized parameters, largest LM parameter change : 2.2710e-02 at parameter 29

******************************************************************************
Init Cost =  -9.6733e+01    New Cost =  -9.6733e+01  Delta Cost =  -3.5969e-04
******************************************************************************

The new set of parameters is valid. Updating the trial wave function!

*****************************************************************************
Applying the update for shift_i =   1.0000e-02     and shift_s =   3.9062e-03
*****************************************************************************
  Execution time = 3.1735e+00
  </log>
  <optVariables href="Si.log.s020.opt.xml">
uu_0 1.9013e-01 1 1  ON 0
uu_1 8.1885e-02 1 1  ON 1
uu_2 3.6624e-02 1 1  ON 2
uu_3 6.8787e-03 1 1  ON 3
uu_4 -2.5630e-02 1 1  ON 4
uu_5 -4.6798e-02 1 1  ON 5
uu_6 -6.5962e-02 1 1  ON 6
uu_7 -7.0729e-02 1 1  ON 7
uu_8 -6.2674e-02 1 1  ON 8
uu_9 -4.0272e-02 1 1  ON 9
ud_0 2.7782e-01 1 1  ON 10
ud_1 1.5337e-01 1 1  ON 11
ud_2 8.8270e-02 1 1  ON 12
ud_3 4.4848e-02 1 1  ON 13
ud_4 1.2044e-03 1 1  ON 14
ud_5 -2.7676e-02 1 1  ON 15
ud_6 -5.3354e-02 1 1  ON 16
ud_7 -6.2350e-02 1 1  ON 17
ud_8 -5.8308e-02 1 1  ON 18
ud_9 -3.9286e-02 1 1  ON 19
eSi_0 -1.6321e+00 1 1  ON 20
eSi_1 -9.0261e-01 1 1  ON 21
eSi_2 -5.1288e-01 1 1  ON 22
eSi_3 -9.5798e-02 1 1  ON 23
eSi_4 2.3729e-01 1 1  ON 24
eSi_5 5.1340e-01 1 1  ON 25
eSi_6 6.8198e-01 1 1  ON 26
eSi_7 7.4816e-01 1 1  ON 27
eSi_8 6.5341e-01 1 1  ON 28
eSi_9 3.7460e-01 1 1  ON 29
  </optVariables>
   Restore the number of walkers to 1, removing 0 walkers.
</opt>
</optimization-report>
  QMC Execution time = 3.2090e+00 secs
  Total Execution time = 6.8729e+01 secs

=========================================================
  A new xml input file : Si.log.s020.cont.xml
TACC:  Shutdown complete. Exiting. 
