TACC:  Starting up job 2696974 
TACC:  Starting parallel tasks... 
  Input file(s): Cr.log.qmc.in-wfj.xml 

=====================================================
                    QMCPACK 3.5.0 

       (c) Copyright 2003-  QMCPACK developers

                    Please cite:
 J. Kim et al. J. Phys. Cond. Mat. 30 195901 (2018)
      https://doi.org/10.1088/1361-648X/aab9c3

  Git branch: develop
  Last git commit: ca320f40410f5ef17c38db08d5c54848ef64bfe1
  Last git commit date: Tue Dec 18 15:37:17 2018 +0800
  Last git commit subject: Merge pull request #764 from Paul-St-Young/dat-h5
=====================================================
  Global options 

  MPI Nodes             = 1024
  MPI Nodes per group   = 1024
  MPI Group ID          = 0
  OMP 1st level threads = 1
  OMP nested threading disabled or only 1 thread on the 2nd level

  Precision used in this calculation, see definitions in the manual:
  Base precision      = double
  Full precision      = double

  Structure-of-arrays (SoA) optimization enabled

  Input XML = Cr.log.qmc.in-wfj.xml

  Project = Cr.log
  date    = 2018-12-27 16:33:37 CST
  host    = c456-003.stampede2.tacc.utexas.edu

 Random Number
 -------------
  Offset for the random number seeds based on time: 833

  Range of prime numbers to use as seeds over processors and threads = 6421-15959


 Particle Set 
 ------------
  Name: ion0
  All the species have the same mass 1
  Particle set size: 1

 Particle Set 
 ------------
  Name: e
  All the species have the same mass 1
  Particle set size: 14

 Wavefunction setup: 
 ------------------- 
  Name: psi0
  LCAO: SoaAtomicBasisSet<MultiQuintic,1>

  Distance table for similar particles (A-A):
    source/target: e
    Using structure-of-arrays (SoA) data layout
    Distance computations use open boundary conditions in 3D.


  Distance table for dissimilar particles (A-B):
    source: ion0  target: e
    Using structure-of-arrays (SoA) data layout
    Distance computations use open boundary conditions in 3D.

Reading BasisSet from HDF5 file:Cr.log.h5
<input node="atomicBasisSet" name="gaussian" expandYlm="pyscf" angular="spherical" elementType="Cr" normalized="no" type="Numerical" expM="0" />
  AO BasisSet for Cr
   Spherical Harmonics contain (-1)^m factor
   Angular momentum m expanded as -l, ... ,l, with the exception of L=1 (1,-1,0)
   Grid is created by the input paremters in h5
    Using log grid ri = 1e-06 rf = 100 npts = 1001
   R(n,l,m,s) 0 0 0 0
   R(n,l,m,s) 1 0 0 0
   R(n,l,m,s) 2 0 0 0
   R(n,l,m,s) 3 0 0 0
   R(n,l,m,s) 4 0 0 0
   R(n,l,m,s) 5 0 0 0
   R(n,l,m,s) 6 0 0 0
   R(n,l,m,s) 7 0 0 0
   R(n,l,m,s) 8 1 0 0
   R(n,l,m,s) 9 1 0 0
   R(n,l,m,s) 10 1 0 0
   R(n,l,m,s) 11 1 0 0
   R(n,l,m,s) 12 1 0 0
   R(n,l,m,s) 13 1 0 0
   R(n,l,m,s) 14 1 0 0
   R(n,l,m,s) 15 1 0 0
   R(n,l,m,s) 16 2 0 0
   R(n,l,m,s) 17 2 0 0
   R(n,l,m,s) 18 2 0 0
   R(n,l,m,s) 19 2 0 0
   R(n,l,m,s) 20 2 0 0
   R(n,l,m,s) 21 2 0 0
   R(n,l,m,s) 22 2 0 0
   R(n,l,m,s) 23 3 0 0
   R(n,l,m,s) 24 3 0 0
   R(n,l,m,s) 25 3 0 0
   R(n,l,m,s) 26 3 0 0
   R(n,l,m,s) 27 4 0 0
   R(n,l,m,s) 28 4 0 0
   R(n,l,m,s) 29 4 0 0
   R(n,l,m,s) 30 5 0 0
   R(n,l,m,s) 31 5 0 0
Expanding Ylm as L=1 as (1,-1,0) and L>1 as -l,-l+1,...,l-1,l
   Adding 1 spherical orbitals
   Adding 1 spherical orbitals
   Adding 1 spherical orbitals
   Adding 1 spherical orbitals
   Adding 1 spherical orbitals
   Adding 1 spherical orbitals
   Adding 1 spherical orbitals
   Adding 1 spherical orbitals
   Adding 3 spherical orbitals
   Adding 3 spherical orbitals
   Adding 3 spherical orbitals
   Adding 3 spherical orbitals
   Adding 3 spherical orbitals
   Adding 3 spherical orbitals
   Adding 3 spherical orbitals
   Adding 3 spherical orbitals
   Adding 5 spherical orbitals
   Adding 5 spherical orbitals
   Adding 5 spherical orbitals
   Adding 5 spherical orbitals
   Adding 5 spherical orbitals
   Adding 5 spherical orbitals
   Adding 5 spherical orbitals
   Adding 7 spherical orbitals
   Adding 7 spherical orbitals
   Adding 7 spherical orbitals
   Adding 7 spherical orbitals
   Adding 9 spherical orbitals
   Adding 9 spherical orbitals
   Adding 9 spherical orbitals
   Adding 11 spherical orbitals
   Adding 11 spherical orbitals
   Maximum Angular Momentum  = 5
   Number of Radial functors = 32
   Basis size                = 144

  Created SPOSet builder named 'LCAOBSet' of type molecularorbital
Reuse SPOSetBuilder "LCAOBSet" type MolecularOrbital
  Building SPOSet '' with '' basis set.
Reuse SPOSetBuilder "LCAOBSet" type MolecularOrbital
  Building SPOSet '' with '' basis set.
  Creating a determinant updet group=0 sposet=updet
  Reusing a SPO set updet
Using DiracDeterminant 
Using rank-1 Sherman-Morrison Fahy update

  Creating a determinant downdet group=1 sposet=downdet
  Reusing a SPO set downdet
Using DiracDeterminant 
Using rank-1 Sherman-Morrison Fahy update

  FermionWF = SlaterDet
  RadialJastrowBuilder adds a functor with cusp = -0.25
 size = 10 parameters 
 cusp = -0.25
 rcut = 12.1
Parameter     Name      Value
uu_0 0.261233 1 1  ON 0
uu_1 0.075914 1 1  ON 1
uu_2 -0.00552496 1 1  ON 2
uu_3 -0.0533673 1 1  ON 3
uu_4 -0.0729209 1 1  ON 4
uu_5 -0.0879768 1 1  ON 5
uu_6 -0.0856795 1 1  ON 6
uu_7 -0.0684343 1 1  ON 7
uu_8 -0.0330566 1 1  ON 8
uu_9 -0.0127106 1 1  ON 9
  RadialJastrowBuilder adds a functor with cusp = -0.5
 size = 10 parameters 
 cusp = -0.5
 rcut = 12.1
Parameter     Name      Value
ud_0 0.311721 1 1  ON 0
ud_1 0.0883118 1 1  ON 1
ud_2 0.00909176 1 1  ON 2
ud_3 -0.0438815 1 1  ON 3
ud_4 -0.0614015 1 1  ON 4
ud_5 -0.0808779 1 1  ON 5
ud_6 -0.0801373 1 1  ON 6
ud_7 -0.0699561 1 1  ON 7
ud_8 -0.0245273 1 1  ON 8
ud_9 -0.00425338 1 1  ON 9
 size = 10 parameters 
 cusp = 0
 rcut = 12.1
Parameter     Name      Value
eCr_0 -1.99176 1 1  ON 0
eCr_1 -1.04006 1 1  ON 1
eCr_2 -0.177323 1 1  ON 2
eCr_3 0.310794 1 1  ON 3
eCr_4 0.626584 1 1  ON 4
eCr_5 0.780787 1 1  ON 5
eCr_6 0.776507 1 1  ON 6
eCr_7 0.547421 1 1  ON 7
eCr_8 0.175337 1 1  ON 8
eCr_9 -0.00858346 1 1  ON 9
Expected 26 parameters, but found 0 in PolynomialFunctor3D.
Parameter     Name      Value
uuCr_0 0 1 1  ON 0
uuCr_1 0 1 1  ON 1
uuCr_2 0 1 1  ON 2
uuCr_3 0 1 1  ON 3
uuCr_4 0 1 1  ON 4
uuCr_5 0 1 1  ON 5
uuCr_6 0 1 1  ON 6
uuCr_7 0 1 1  ON 7
uuCr_8 0 1 1  ON 8
uuCr_9 0 1 1  ON 9
uuCr_10 0 1 1  ON 10
uuCr_11 0 1 1  ON 11
uuCr_12 0 1 1  ON 12
uuCr_13 0 1 1  ON 13
uuCr_14 0 1 1  ON 14
uuCr_15 0 1 1  ON 15
uuCr_16 0 1 1  ON 16
uuCr_17 0 1 1  ON 17
uuCr_18 0 1 1  ON 18
uuCr_19 0 1 1  ON 19
uuCr_20 0 1 1  ON 20
uuCr_21 0 1 1  ON 21
uuCr_22 0 1 1  ON 22
uuCr_23 0 1 1  ON 23
uuCr_24 0 1 1  ON 24
uuCr_25 0 1 1  ON 25
Expected 26 parameters, but found 0 in PolynomialFunctor3D.
Parameter     Name      Value
udCr_0 0 1 1  ON 0
udCr_1 0 1 1  ON 1
udCr_2 0 1 1  ON 2
udCr_3 0 1 1  ON 3
udCr_4 0 1 1  ON 4
udCr_5 0 1 1  ON 5
udCr_6 0 1 1  ON 6
udCr_7 0 1 1  ON 7
udCr_8 0 1 1  ON 8
udCr_9 0 1 1  ON 9
udCr_10 0 1 1  ON 10
udCr_11 0 1 1  ON 11
udCr_12 0 1 1  ON 12
udCr_13 0 1 1  ON 13
udCr_14 0 1 1  ON 14
udCr_15 0 1 1  ON 15
udCr_16 0 1 1  ON 16
udCr_17 0 1 1  ON 17
udCr_18 0 1 1  ON 18
udCr_19 0 1 1  ON 19
udCr_20 0 1 1  ON 20
udCr_21 0 1 1  ON 21
udCr_22 0 1 1  ON 22
udCr_23 0 1 1  ON 23
udCr_24 0 1 1  ON 24
udCr_25 0 1 1  ON 25
  QMCHamiltonian::addOperator Kinetic to H, physical Hamiltonian 
  QMCHamiltonian::addOperator ElecElec to H, physical Hamiltonian 
QMCHamiltonian::addOperatorType added type coulomb named ElecElec
  CoulombAA for ion0 is not created.  Number of particles == 1 and nonPeriodic

  ECPotential builder for pseudopotential 

  Adding pseudopotential for Cr
   Linear grid  ri=0 rf=10 npts = 10001
    ECPComponentBuilder::buildSemiLocalAndLocal 
    Assuming Hartree unit
   Number of angular momentum channels 3
   Maximum angular momentum channel 2
   Creating a Linear Grid Rmax=1.44
  Using global grid with delta = 0.001
   Making L=2 a local potential with a radial cutoff of 9.999
    Non-local pseudopotential parameters
    Maximum angular mementum = 1
    Number of non-local channels = 2
       l(0)=0
       l(1)=1
    Cutoff radius = 1.44
    Spherical grids and weights: 
                        1                 0                 0       0.08333333333
                       -1   1.224646799e-16                 0       0.08333333333
             0.4472135955       0.894427191                 0       0.08333333333
            -0.4472135955      0.7236067977      0.5257311121       0.08333333333
             0.4472135955      0.2763932023      0.8506508084       0.08333333333
            -0.4472135955     -0.2763932023      0.8506508084       0.08333333333
             0.4472135955     -0.7236067977      0.5257311121       0.08333333333
            -0.4472135955      -0.894427191   1.095357397e-16       0.08333333333
             0.4472135955     -0.7236067977     -0.5257311121       0.08333333333
            -0.4472135955     -0.2763932023     -0.8506508084       0.08333333333
             0.4472135955      0.2763932023     -0.8506508084       0.08333333333
            -0.4472135955      0.7236067977     -0.5257311121       0.08333333333
    Maximum cutoff radius 1.44
  QMCHamiltonian::addOperator LocalECP to H, physical Hamiltonian 

  Using NonLocalECP potential 
    Maximum grid on a sphere for NonLocalECPotential: 12
  QMCHamiltonian::addOperator NonLocalECP to H, physical Hamiltonian 
QMCHamiltonian::addOperatorType added type pseudo named PseudoPot

  QMCHamiltonian::add2WalkerProperty added
    4 to P::PropertyList 
    0 to P::Collectables 
    starting Index of the observables in P::PropertyList = 9
ParticleSetPool::randomize 
<init source="ion0" target="e">
</init>
  Initialization Execution time = 0.5311 secs
=========================================================
 Summary of QMC systems 
=========================================================
ParticleSetPool has: 

  ParticleSet e : 0 10 14 

    14

    u -3.0222756132e+00  9.1844731743e-01 -4.4282947624e+00
    u  8.8579141472e-01  1.2663260214e+00  8.2056285908e-02
    u  3.0633440975e-01  1.7909772525e+00 -3.1072462121e+00
    u -1.4502800371e+00 -1.5576520749e+00  1.7578922766e+00
    u  1.8378168348e+00  1.0421369216e+00 -1.6786185222e+00
    u -6.0374101473e-01 -1.1399800997e+00  1.0735896365e+00
    u  1.5818004310e-01 -1.3086345544e+00 -3.2605346952e+00
    u  1.3822395967e+00 -5.4359842417e-01  3.1103402487e-01
    u -1.4598803315e+00 -2.3860581408e-01  3.3013864434e+00
    u  2.0511082461e+00 -5.6775928052e-01  2.4367839442e+00
    (... and 4 more particle positions ...)

  ParticleSet ion0 : 0 1 

    1

    Cr  0.0000000000e+00  0.0000000000e+00  0.0000000000e+00

  Hamiltonian h0
  Kinetic         Kinetic energy
  ElecElec        CoulombAA source/target e

  LocalECP        LocalECPotential: ion0
  NonLocalECP     NonLocalECPotential: ion0

=========================================================
  Start VMC
  File Root Cr.log.s000 append = no 
=========================================================
  Adding 1 walkers to 0 existing sets
  Total number of walkers: 1.0240000000e+03
  Total weight: 1.0240000000e+03
  Resetting Properties of the walkers 1 x 13

<vmc function="put">
  qmc_counter=0  my_counter=0
  time step      = 1.5000000000e-01
  blocks         = 200
  steps          = 1
  substeps       = 5
  current        = 0
  target samples = 1.0240000000e+03
  walkers/mpi    = 1

  stepsbetweensamples = 200
<parameter name="blocks" condition="int">200</parameter>
<parameter name="blocks_between_recompute" condition="int">0</parameter>
<parameter name="check_properties" condition="int">100</parameter>
<parameter name="checkproperties" condition="int">100</parameter>
<parameter name="current" condition="int">0</parameter>
<parameter name="dmcwalkersperthread" condition="real">1.0000000000e+00</parameter>
<parameter name="maxcpusecs" condition="real">3.6000000000e+05</parameter>
<parameter name="record_configs" condition="int">0</parameter>
<parameter name="record_walkers" condition="int">200</parameter>
<parameter name="recordconfigs" condition="int">0</parameter>
<parameter name="recordwalkers" condition="int">200</parameter>
<parameter name="rewind" condition="int">0</parameter>
<parameter name="samples" condition="real">1.0240000000e+03</parameter>
<parameter name="samplesperthread" condition="real">1.0000000000e+00</parameter>
<parameter name="steps" condition="int">1</parameter>
<parameter name="stepsbetweensamples" condition="int">200</parameter>
<parameter name="store_configs" condition="int">0</parameter>
<parameter name="storeconfigs" condition="int">0</parameter>
<parameter name="sub_steps" condition="int">5</parameter>
<parameter name="substeps" condition="int">5</parameter>
<parameter name="tau" condition="au">1.5000000000e-01</parameter>
<parameter name="time_step" condition="au">1.5000000000e-01</parameter>
<parameter name="timestep" condition="au">1.5000000000e-01</parameter>
<parameter name="use_drift" condition="string">no</parameter>
<parameter name="usedrift" condition="string">no</parameter>
<parameter name="walkers" condition="int">1</parameter>
<parameter name="warmup_steps" condition="int">100</parameter>
<parameter name="warmupsteps" condition="int">100</parameter>
  DumpConfig==false Nothing (configurations, state) will be saved.
  Walker Samples are dumped every 200 steps.
</vmc>
  Initial partition of walkers 0 1 

  Using Particle by Particle moves
  Walker moves without drift
  Total Sample Size   =1024
  Walker distribution on root = 0 1 
  Using Locality Approximation
===== Memory Usage after the buffer registration =====
Available memory on node 0, free + buffers : 83919 MB
Memory footprint by rank 0 on node 0       : 76 MB
==================================================
  Anonymous Buffer size per walker : 7584 Bytes.
MEMORY increase 0 MB VMC::resetRun
====================================================
  SimpleFixedNodeBranch::finalize after a VMC block
    QMC counter        = 0
    time step          = 0.15
    reference energy   = -86.5377
    reference variance = 1.2892
====================================================
  QMC Execution time = 2.0283e+00 secs 
Loop execution max-interations = 20

=========================================================
  Start QMCFixedSampleLinearOptimize
  File Root Cr.log.s001 append = no 
=========================================================
  Skip QMCDriver::putQMCInfo 
  Resetting Properties of the walkers 1 x 13

=========================================================
  Start VMC
  File Root Cr.log.s001 append = no 
=========================================================
  Using the current 1 walkers.
  Total number of walkers: 1.0240e+03
  Total weight: 1.0240e+03
  Resetting Properties of the walkers 1 x 13

<vmc function="put">
  qmc_counter=0  my_counter=0
  time step      = 1.5000e-01
  blocks         = 500
  steps          = 1
  substeps       = 5
  current        = 0
  target samples = 5.1200e+05
  walkers/mpi    = 1

  stepsbetweensamples = 1
<parameter name="blocks" condition="int">500</parameter>
<parameter name="blocks_between_recompute" condition="int">0</parameter>
<parameter name="check_properties" condition="int">100</parameter>
<parameter name="checkproperties" condition="int">100</parameter>
<parameter name="current" condition="int">0</parameter>
<parameter name="dmcwalkersperthread" condition="real">5.0000e+02</parameter>
<parameter name="maxcpusecs" condition="real">3.6000e+05</parameter>
<parameter name="record_configs" condition="int">0</parameter>
<parameter name="record_walkers" condition="int">1</parameter>
<parameter name="recordconfigs" condition="int">0</parameter>
<parameter name="recordwalkers" condition="int">1</parameter>
<parameter name="rewind" condition="int">0</parameter>
<parameter name="samples" condition="real">5.1200e+05</parameter>
<parameter name="samplesperthread" condition="real">5.0000e+02</parameter>
<parameter name="steps" condition="int">1</parameter>
<parameter name="stepsbetweensamples" condition="int">1</parameter>
<parameter name="store_configs" condition="int">0</parameter>
<parameter name="storeconfigs" condition="int">0</parameter>
<parameter name="sub_steps" condition="int">5</parameter>
<parameter name="substeps" condition="int">5</parameter>
<parameter name="tau" condition="au">1.5000e-01</parameter>
<parameter name="time_step" condition="au">1.5000e-01</parameter>
<parameter name="timestep" condition="au">1.5000e-01</parameter>
<parameter name="use_drift" condition="string">no</parameter>
<parameter name="usedrift" condition="string">no</parameter>
<parameter name="walkers" condition="int">1</parameter>
<parameter name="warmup_steps" condition="int">0</parameter>
<parameter name="warmupsteps" condition="int">0</parameter>
  DumpConfig==false Nothing (configurations, state) will be saved.
  Walker Samples are dumped every 1 steps.
</vmc>
    Restarting, cummulative properties:
      energy     = -8.6538e+01
      variance   = 0.0000e+00
      r2accepted = 1.0000e-10
      r2proposed = 1.0000e-10
 Using QMCCostFunction::QMCCostFunction
  EstimatorManagerBase::add replace LocalEnergy estimator.
<optimization-report>
<vmc stage="main" blocks="500">
  Cannot make clones again. Use existing 1 clones
  Initial partition of walkers 0 1 

  Using Particle by Particle moves
  Walker moves without drift
  Total Sample Size   =512000
  Walker distribution on root = 0 1 
  Using Locality Approximation
===== Memory Usage after the buffer registration =====
Available memory on node 0, free + buffers : 83910 MB
Memory footprint by rank 0 on node 0       : 76 MB
==================================================
  Anonymous Buffer size per walker : 7584 Bytes.
MEMORY increase 0 MB VMC::resetRun
====================================================
  SimpleFixedNodeBranch::finalize after a VMC block
    QMC counter        = 1
    time step          = 0.15
    reference energy   = -86.556
    reference variance = 1.0953
====================================================
  Execution time = 5.0043e+00
</vmc>
<opt stage="setup">
  <log>
   Reading configurations from h5FileRoot Cr.log.s001
  QMCCostFunction is created with 1 threads.
  Using Nonlocal PP in Opt: NonLocalECP
   Number of samples loaded to each thread : 500 
  VMC Eavg = -8.6534e+01
  VMC Evar = 1.2622e+00
  Total weights = 5.1200e+05
  Execution time = 2.4426e+00
  </log>
</opt>
<opt stage="main" walkers="512000">
  <log>

*****************************************
Building overlap and Hamiltonian matrices
*****************************************

Among totally 82 optimized parameters, largest LM parameter change : 1.3700e-01 at parameter 21

******************************************************************************
Init Cost =  -8.2144e+01    New Cost =  -8.2175e+01  Delta Cost =  -3.0528e-02
******************************************************************************

The new set of parameters is valid. Updating the trial wave function!

*****************************************************************************
Applying the update for shift_i =   1.0000e-02     and shift_s =   2.5000e-01
*****************************************************************************
  Execution time = 8.7252e+00
  </log>
  <optVariables href="Cr.log.s001.opt.xml">
uu_0 2.5642e-01 1 1  ON 0
uu_1 9.1408e-02 1 1  ON 1
uu_2 9.1469e-03 1 1  ON 2
uu_3 -3.4482e-02 1 1  ON 3
uu_4 -7.0838e-02 1 1  ON 4
uu_5 -9.4605e-02 1 1  ON 5
uu_6 -9.5266e-02 1 1  ON 6
uu_7 -7.5388e-02 1 1  ON 7
uu_8 -4.0479e-02 1 1  ON 8
uu_9 -2.1374e-02 1 1  ON 9
ud_0 3.1115e-01 1 1  ON 10
ud_1 6.4883e-02 1 1  ON 11
ud_2 -1.5102e-02 1 1  ON 12
ud_3 -2.7252e-02 1 1  ON 13
ud_4 -3.9647e-02 1 1  ON 14
ud_5 -7.2153e-02 1 1  ON 15
ud_6 -7.3826e-02 1 1  ON 16
ud_7 -5.8680e-02 1 1  ON 17
ud_8 -2.3091e-02 1 1  ON 18
ud_9 -6.8468e-03 1 1  ON 19
eCr_0 -1.9959e+00 1 1  ON 20
eCr_1 -1.1771e+00 1 1  ON 21
eCr_2 -9.8515e-02 1 1  ON 22
eCr_3 3.6853e-01 1 1  ON 23
eCr_4 6.2802e-01 1 1  ON 24
eCr_5 7.6017e-01 1 1  ON 25
eCr_6 7.8159e-01 1 1  ON 26
eCr_7 5.5413e-01 1 1  ON 27
eCr_8 1.8984e-01 1 1  ON 28
eCr_9 -7.0507e-03 1 1  ON 29
uuCr_0 1.8601e-06 1 1  ON 30
uuCr_1 3.1904e-06 1 1  ON 31
uuCr_2 3.9408e-07 1 1  ON 32
uuCr_3 -2.9519e-06 1 1  ON 33
uuCr_4 -4.3689e-07 1 1  ON 34
uuCr_5 1.0540e-08 1 1  ON 35
uuCr_6 1.7054e-06 1 1  ON 36
uuCr_7 2.6417e-06 1 1  ON 37
uuCr_8 1.9441e-06 1 1  ON 38
uuCr_9 -3.7221e-06 1 1  ON 39
uuCr_10 -1.5258e-06 1 1  ON 40
uuCr_11 -1.5827e-06 1 1  ON 41
uuCr_12 -2.3561e-07 1 1  ON 42
uuCr_13 2.0120e-06 1 1  ON 43
uuCr_14 3.9119e-07 1 1  ON 44
uuCr_15 -1.8602e-08 1 1  ON 45
uuCr_16 2.6553e-06 1 1  ON 46
uuCr_17 1.5829e-06 1 1  ON 47
uuCr_18 8.8643e-08 1 1  ON 48
uuCr_19 -5.5031e-08 1 1  ON 49
uuCr_20 -5.0082e-07 1 1  ON 50
uuCr_21 -2.0914e-08 1 1  ON 51
uuCr_22 1.9344e-08 1 1  ON 52
uuCr_23 1.9177e-07 1 1  ON 53
uuCr_24 -1.3731e-09 1 1  ON 54
uuCr_25 -3.7910e-09 1 1  ON 55
udCr_0 3.2979e-06 1 1  ON 56
udCr_1 1.1661e-05 1 1  ON 57
udCr_2 4.5505e-06 1 1  ON 58
udCr_3 -5.5483e-06 1 1  ON 59
udCr_4 -1.3563e-06 1 1  ON 60
udCr_5 -1.2207e-07 1 1  ON 61
udCr_6 1.7838e-05 1 1  ON 62
udCr_7 -2.6023e-06 1 1  ON 63
udCr_8 4.6243e-06 1 1  ON 64
udCr_9 -1.7607e-05 1 1  ON 65
udCr_10 -3.4949e-06 1 1  ON 66
udCr_11 -2.5727e-06 1 1  ON 67
udCr_12 -5.3593e-07 1 1  ON 68
udCr_13 6.5596e-06 1 1  ON 69
udCr_14 1.5548e-07 1 1  ON 70
udCr_15 2.9468e-08 1 1  ON 71
udCr_16 2.0154e-05 1 1  ON 72
udCr_17 4.9565e-07 1 1  ON 73
udCr_18 4.6409e-07 1 1  ON 74
udCr_19 -4.8643e-08 1 1  ON 75
udCr_20 -4.8896e-06 1 1  ON 76
udCr_21 3.5338e-07 1 1  ON 77
udCr_22 -3.4584e-08 1 1  ON 78
udCr_23 1.2228e-06 1 1  ON 79
udCr_24 -1.5132e-07 1 1  ON 80
udCr_25 1.9520e-08 1 1  ON 81
  </optVariables>
   Restore the number of walkers to 1, removing 0 walkers.
</opt>
</optimization-report>
  QMC Execution time = 8.7415e+00 secs 
  Reusing QMCFixedSampleLinearOptimize
 Using QMCCostFunction::QMCCostFunction

=========================================================
  Start QMCFixedSampleLinearOptimize
  File Root Cr.log.s002 append = no 
=========================================================
  Skip QMCDriver::putQMCInfo 
  Resetting Properties of the walkers 1 x 13

=========================================================
  Start VMC
  File Root Cr.log.s002 append = no 
=========================================================
Using existing walkers 
  Resetting Properties of the walkers 1 x 13

<vmc function="put">
  qmc_counter=1  my_counter=1
  time step      = 1.5000e-01
  blocks         = 500
  steps          = 1
  substeps       = 5
  current        = 0
  target samples = 5.1200e+05
  walkers/mpi    = 1

  stepsbetweensamples = 1
<parameter name="blocks" condition="int">500</parameter>
<parameter name="blocks_between_recompute" condition="int">0</parameter>
<parameter name="check_properties" condition="int">100</parameter>
<parameter name="checkproperties" condition="int">100</parameter>
<parameter name="current" condition="int">0</parameter>
<parameter name="dmcwalkersperthread" condition="real">5.0000e+02</parameter>
<parameter name="maxcpusecs" condition="real">3.6000e+05</parameter>
<parameter name="record_configs" condition="int">0</parameter>
<parameter name="record_walkers" condition="int">1</parameter>
<parameter name="recordconfigs" condition="int">0</parameter>
<parameter name="recordwalkers" condition="int">1</parameter>
<parameter name="rewind" condition="int">0</parameter>
<parameter name="samples" condition="real">5.1200e+05</parameter>
<parameter name="samplesperthread" condition="real">5.0000e+02</parameter>
<parameter name="steps" condition="int">1</parameter>
<parameter name="stepsbetweensamples" condition="int">1</parameter>
<parameter name="store_configs" condition="int">0</parameter>
<parameter name="storeconfigs" condition="int">0</parameter>
<parameter name="sub_steps" condition="int">5</parameter>
<parameter name="substeps" condition="int">5</parameter>
<parameter name="tau" condition="au">1.5000e-01</parameter>
<parameter name="time_step" condition="au">1.5000e-01</parameter>
<parameter name="timestep" condition="au">1.5000e-01</parameter>
<parameter name="use_drift" condition="string">no</parameter>
<parameter name="usedrift" condition="string">no</parameter>
<parameter name="walkers" condition="int">1</parameter>
<parameter name="warmup_steps" condition="int">0</parameter>
<parameter name="warmupsteps" condition="int">0</parameter>
  DumpConfig==false Nothing (configurations, state) will be saved.
  Walker Samples are dumped every 1 steps.
</vmc>
  EstimatorManagerBase::add replace LocalEnergy estimator.
  EstimatorManagerBase::add replace LocalEnergy estimator.
<optimization-report>
<vmc stage="main" blocks="500">
  Cannot make clones again. Use existing 1 clones
  Initial partition of walkers 0 1 
  Using Particle by Particle moves
  Walker moves without drift
  Total Sample Size   =512000
  Walker distribution on root = 0 1 
  Using Locality Approximation
===== Memory Usage after the buffer registration =====
Available memory on node 0, free + buffers : 82777 MB
Memory footprint by rank 0 on node 0       : 97 MB
==================================================
====================================================
  SimpleFixedNodeBranch::finalize after a VMC block
    QMC counter        = 2
    time step          = 0.15
    reference energy   = -86.545
    reference variance = 0.978936
====================================================
  Execution time = 4.7804e+00
</vmc>
<opt stage="setup">
  <log>
   Reading configurations from h5FileRoot Cr.log.s002
  QMCCostFunction is created with 1 threads.
  Using Nonlocal PP in Opt: NonLocalECP
   Number of samples loaded to each thread : 500 
  VMC Eavg = -8.6557e+01
  VMC Evar = 1.1284e+00
  Total weights = 5.1200e+05
  Execution time = 2.5138e+00
  </log>
</opt>
<opt stage="main" walkers="512000">
  <log>

*****************************************
Building overlap and Hamiltonian matrices
*****************************************

Among totally 82 optimized parameters, largest LM parameter change : 8.0135e-02 at parameter 21

******************************************************************************
Init Cost =  -8.2172e+01    New Cost =  -8.2173e+01  Delta Cost =  -4.7322e-04
******************************************************************************

The new set of parameters is valid. Updating the trial wave function!

*****************************************************************************
Applying the update for shift_i =   1.0000e-02     and shift_s =   6.2500e-02
*****************************************************************************
  Execution time = 8.4758e+00
  </log>
  <optVariables href="Cr.log.s002.opt.xml">
uu_0 2.6866e-01 1 1  ON 0
uu_1 1.0875e-01 1 1  ON 1
uu_2 2.7689e-02 1 1  ON 2
uu_3 -2.3067e-02 1 1  ON 3
uu_4 -7.0060e-02 1 1  ON 4
uu_5 -9.8662e-02 1 1  ON 5
uu_6 -1.0024e-01 1 1  ON 6
uu_7 -7.8766e-02 1 1  ON 7
uu_8 -4.6678e-02 1 1  ON 8
uu_9 -1.8454e-02 1 1  ON 9
ud_0 3.0063e-01 1 1  ON 10
ud_1 5.8206e-02 1 1  ON 11
ud_2 -1.3320e-02 1 1  ON 12
ud_3 -1.9326e-02 1 1  ON 13
ud_4 -2.9780e-02 1 1  ON 14
ud_5 -6.4118e-02 1 1  ON 15
ud_6 -6.6999e-02 1 1  ON 16
ud_7 -5.5712e-02 1 1  ON 17
ud_8 -2.0551e-02 1 1  ON 18
ud_9 -8.7289e-03 1 1  ON 19
eCr_0 -2.0191e+00 1 1  ON 20
eCr_1 -1.2572e+00 1 1  ON 21
eCr_2 -6.9507e-02 1 1  ON 22
eCr_3 4.4413e-01 1 1  ON 23
eCr_4 6.2965e-01 1 1  ON 24
eCr_5 7.2952e-01 1 1  ON 25
eCr_6 7.8902e-01 1 1  ON 26
eCr_7 5.6606e-01 1 1  ON 27
eCr_8 2.0266e-01 1 1  ON 28
eCr_9 -5.0675e-03 1 1  ON 29
uuCr_0 2.1232e-06 1 1  ON 30
uuCr_1 3.3961e-06 1 1  ON 31
uuCr_2 2.3731e-07 1 1  ON 32
uuCr_3 -3.3081e-06 1 1  ON 33
uuCr_4 -4.2293e-07 1 1  ON 34
uuCr_5 -7.0734e-08 1 1  ON 35
uuCr_6 1.4013e-06 1 1  ON 36
uuCr_7 2.9666e-06 1 1  ON 37
uuCr_8 1.9789e-06 1 1  ON 38
uuCr_9 -3.8061e-06 1 1  ON 39
uuCr_10 -1.5664e-06 1 1  ON 40
uuCr_11 -1.7241e-06 1 1  ON 41
uuCr_12 -2.0184e-07 1 1  ON 42
uuCr_13 2.0470e-06 1 1  ON 43
uuCr_14 3.9958e-07 1 1  ON 44
uuCr_15 -2.2867e-08 1 1  ON 45
uuCr_16 3.0172e-06 1 1  ON 46
uuCr_17 1.6606e-06 1 1  ON 47
uuCr_18 1.0508e-07 1 1  ON 48
uuCr_19 -9.2762e-08 1 1  ON 49
uuCr_20 -7.5500e-07 1 1  ON 50
uuCr_21 -4.5107e-09 1 1  ON 51
uuCr_22 2.3314e-08 1 1  ON 52
uuCr_23 3.9429e-07 1 1  ON 53
uuCr_24 -1.4002e-08 1 1  ON 54
uuCr_25 -3.5258e-09 1 1  ON 55
udCr_0 3.9255e-06 1 1  ON 56
udCr_1 1.3021e-05 1 1  ON 57
udCr_2 5.0085e-06 1 1  ON 58
udCr_3 -6.1369e-06 1 1  ON 59
udCr_4 -1.3976e-06 1 1  ON 60
udCr_5 -3.9299e-09 1 1  ON 61
udCr_6 1.9339e-05 1 1  ON 62
udCr_7 -2.7224e-06 1 1  ON 63
udCr_8 5.2965e-06 1 1  ON 64
udCr_9 -1.9546e-05 1 1  ON 65
udCr_10 -3.5916e-06 1 1  ON 66
udCr_11 -3.4906e-06 1 1  ON 67
udCr_12 -5.5616e-07 1 1  ON 68
udCr_13 7.1566e-06 1 1  ON 69
udCr_14 1.8002e-07 1 1  ON 70
udCr_15 2.8835e-08 1 1  ON 71
udCr_16 2.3042e-05 1 1  ON 72
udCr_17 -2.1911e-08 1 1  ON 73
udCr_18 1.1753e-06 1 1  ON 74
udCr_19 -1.3801e-07 1 1  ON 75
udCr_20 -5.6315e-06 1 1  ON 76
udCr_21 3.2806e-07 1 1  ON 77
udCr_22 -2.6392e-08 1 1  ON 78
udCr_23 1.4787e-06 1 1  ON 79
udCr_24 -1.6736e-07 1 1  ON 80
udCr_25 2.0559e-08 1 1  ON 81
  </optVariables>
   Restore the number of walkers to 1, removing 0 walkers.
</opt>
</optimization-report>
  QMC Execution time = 8.4914e+00 secs 
  Reusing QMCFixedSampleLinearOptimize
 Using QMCCostFunction::QMCCostFunction

=========================================================
  Start QMCFixedSampleLinearOptimize
  File Root Cr.log.s003 append = no 
=========================================================
  Skip QMCDriver::putQMCInfo 
  Resetting Properties of the walkers 1 x 13

=========================================================
  Start VMC
  File Root Cr.log.s003 append = no 
=========================================================
Using existing walkers 
  Resetting Properties of the walkers 1 x 13

<vmc function="put">
  qmc_counter=2  my_counter=2
  time step      = 1.5000e-01
  blocks         = 500
  steps          = 1
  substeps       = 5
  current        = 0
  target samples = 5.1200e+05
  walkers/mpi    = 1

  stepsbetweensamples = 1
<parameter name="blocks" condition="int">500</parameter>
<parameter name="blocks_between_recompute" condition="int">0</parameter>
<parameter name="check_properties" condition="int">100</parameter>
<parameter name="checkproperties" condition="int">100</parameter>
<parameter name="current" condition="int">0</parameter>
<parameter name="dmcwalkersperthread" condition="real">5.0000e+02</parameter>
<parameter name="maxcpusecs" condition="real">3.6000e+05</parameter>
<parameter name="record_configs" condition="int">0</parameter>
<parameter name="record_walkers" condition="int">1</parameter>
<parameter name="recordconfigs" condition="int">0</parameter>
<parameter name="recordwalkers" condition="int">1</parameter>
<parameter name="rewind" condition="int">0</parameter>
<parameter name="samples" condition="real">5.1200e+05</parameter>
<parameter name="samplesperthread" condition="real">5.0000e+02</parameter>
<parameter name="steps" condition="int">1</parameter>
<parameter name="stepsbetweensamples" condition="int">1</parameter>
<parameter name="store_configs" condition="int">0</parameter>
<parameter name="storeconfigs" condition="int">0</parameter>
<parameter name="sub_steps" condition="int">5</parameter>
<parameter name="substeps" condition="int">5</parameter>
<parameter name="tau" condition="au">1.5000e-01</parameter>
<parameter name="time_step" condition="au">1.5000e-01</parameter>
<parameter name="timestep" condition="au">1.5000e-01</parameter>
<parameter name="use_drift" condition="string">no</parameter>
<parameter name="usedrift" condition="string">no</parameter>
<parameter name="walkers" condition="int">1</parameter>
<parameter name="warmup_steps" condition="int">0</parameter>
<parameter name="warmupsteps" condition="int">0</parameter>
  DumpConfig==false Nothing (configurations, state) will be saved.
  Walker Samples are dumped every 1 steps.
</vmc>
  EstimatorManagerBase::add replace LocalEnergy estimator.
  EstimatorManagerBase::add replace LocalEnergy estimator.
<optimization-report>
<vmc stage="main" blocks="500">
  Cannot make clones again. Use existing 1 clones
  Initial partition of walkers 0 1 
  Using Particle by Particle moves
  Walker moves without drift
  Total Sample Size   =512000
  Walker distribution on root = 0 1 
  Using Locality Approximation
===== Memory Usage after the buffer registration =====
Available memory on node 0, free + buffers : 82774 MB
Memory footprint by rank 0 on node 0       : 100 MB
==================================================
====================================================
  SimpleFixedNodeBranch::finalize after a VMC block
    QMC counter        = 3
    time step          = 0.15
    reference energy   = -86.6145
    reference variance = 0.946709
====================================================
  Execution time = 4.8559e+00
</vmc>
<opt stage="setup">
  <log>
   Reading configurations from h5FileRoot Cr.log.s003
  QMCCostFunction is created with 1 threads.
  Using Nonlocal PP in Opt: NonLocalECP
   Number of samples loaded to each thread : 500 
  VMC Eavg = -8.6559e+01
  VMC Evar = 1.1602e+00
  Total weights = 5.1200e+05
  Execution time = 2.2987e+00
  </log>
</opt>
<opt stage="main" walkers="512000">
  <log>

*****************************************
Building overlap and Hamiltonian matrices
*****************************************

Among totally 82 optimized parameters, largest LM parameter change : 6.5981e-02 at parameter 23

******************************************************************************
Init Cost =  -8.2173e+01    New Cost =  -8.2173e+01  Delta Cost =  -2.5036e-04
******************************************************************************

The new set of parameters is valid. Updating the trial wave function!

*****************************************************************************
Applying the update for shift_i =   1.0000e-02     and shift_s =   1.5625e-02
*****************************************************************************
  Execution time = 8.2970e+00
  </log>
  <optVariables href="Cr.log.s003.opt.xml">
uu_0 2.8547e-01 1 1  ON 0
uu_1 1.1997e-01 1 1  ON 1
uu_2 3.3695e-02 1 1  ON 2
uu_3 -2.1021e-02 1 1  ON 3
uu_4 -7.0924e-02 1 1  ON 4
uu_5 -1.0022e-01 1 1  ON 5
uu_6 -1.0359e-01 1 1  ON 6
uu_7 -8.3350e-02 1 1  ON 7
uu_8 -5.4157e-02 1 1  ON 8
uu_9 -2.1662e-02 1 1  ON 9
ud_0 2.9169e-01 1 1  ON 10
ud_1 5.0528e-02 1 1  ON 11
ud_2 -1.6665e-02 1 1  ON 12
ud_3 -1.4206e-02 1 1  ON 13
ud_4 -2.2168e-02 1 1  ON 14
ud_5 -5.5289e-02 1 1  ON 15
ud_6 -6.9098e-02 1 1  ON 16
ud_7 -5.1272e-02 1 1  ON 17
ud_8 -1.6683e-02 1 1  ON 18
ud_9 -7.0574e-03 1 1  ON 19
eCr_0 -2.0562e+00 1 1  ON 20
eCr_1 -1.3144e+00 1 1  ON 21
eCr_2 -4.8167e-02 1 1  ON 22
eCr_3 5.1011e-01 1 1  ON 23
eCr_4 6.4007e-01 1 1  ON 24
eCr_5 7.0451e-01 1 1  ON 25
eCr_6 7.8751e-01 1 1  ON 26
eCr_7 5.7918e-01 1 1  ON 27
eCr_8 2.1490e-01 1 1  ON 28
eCr_9 -4.9823e-03 1 1  ON 29
uuCr_0 2.5333e-06 1 1  ON 30
uuCr_1 3.8125e-06 1 1  ON 31
uuCr_2 1.6590e-07 1 1  ON 32
uuCr_3 -3.7066e-06 1 1  ON 33
uuCr_4 -4.5799e-07 1 1  ON 34
uuCr_5 -1.3103e-07 1 1  ON 35
uuCr_6 1.8726e-06 1 1  ON 36
uuCr_7 2.3465e-06 1 1  ON 37
uuCr_8 2.1254e-06 1 1  ON 38
uuCr_9 -4.5056e-06 1 1  ON 39
uuCr_10 -1.7790e-06 1 1  ON 40
uuCr_11 -1.4554e-06 1 1  ON 41
uuCr_12 -2.7352e-07 1 1  ON 42
uuCr_13 2.7278e-06 1 1  ON 43
uuCr_14 4.6003e-07 1 1  ON 44
uuCr_15 -2.1795e-08 1 1  ON 45
uuCr_16 3.6410e-06 1 1  ON 46
uuCr_17 2.3718e-06 1 1  ON 47
uuCr_18 -2.7441e-07 1 1  ON 48
uuCr_19 -3.3340e-08 1 1  ON 49
uuCr_20 -1.1838e-06 1 1  ON 50
uuCr_21 4.8615e-08 1 1  ON 51
uuCr_22 1.4139e-08 1 1  ON 52
uuCr_23 5.0182e-07 1 1  ON 53
uuCr_24 -2.9430e-08 1 1  ON 54
uuCr_25 -1.1727e-09 1 1  ON 55
udCr_0 3.8991e-06 1 1  ON 56
udCr_1 1.3372e-05 1 1  ON 57
udCr_2 5.2513e-06 1 1  ON 58
udCr_3 -6.1769e-06 1 1  ON 59
udCr_4 -1.4656e-06 1 1  ON 60
udCr_5 7.9437e-08 1 1  ON 61
udCr_6 1.9970e-05 1 1  ON 62
udCr_7 -2.4473e-06 1 1  ON 63
udCr_8 5.4687e-06 1 1  ON 64
udCr_9 -2.0076e-05 1 1  ON 65
udCr_10 -3.6401e-06 1 1  ON 66
udCr_11 -3.7583e-06 1 1  ON 67
udCr_12 -5.7835e-07 1 1  ON 68
udCr_13 7.1256e-06 1 1  ON 69
udCr_14 2.0445e-07 1 1  ON 70
udCr_15 2.7495e-08 1 1  ON 71
udCr_16 2.3867e-05 1 1  ON 72
udCr_17 -2.3745e-07 1 1  ON 73
udCr_18 1.3169e-06 1 1  ON 74
udCr_19 -1.3978e-07 1 1  ON 75
udCr_20 -5.6950e-06 1 1  ON 76
udCr_21 3.0481e-07 1 1  ON 77
udCr_22 -2.3135e-08 1 1  ON 78
udCr_23 1.4747e-06 1 1  ON 79
udCr_24 -1.6013e-07 1 1  ON 80
udCr_25 1.9044e-08 1 1  ON 81
  </optVariables>
   Restore the number of walkers to 1, removing 0 walkers.
</opt>
</optimization-report>
  QMC Execution time = 8.3127e+00 secs 
  Reusing QMCFixedSampleLinearOptimize
 Using QMCCostFunction::QMCCostFunction

=========================================================
  Start QMCFixedSampleLinearOptimize
  File Root Cr.log.s004 append = no 
=========================================================
  Skip QMCDriver::putQMCInfo 
  Resetting Properties of the walkers 1 x 13

=========================================================
  Start VMC
  File Root Cr.log.s004 append = no 
=========================================================
Using existing walkers 
  Resetting Properties of the walkers 1 x 13

<vmc function="put">
  qmc_counter=3  my_counter=3
  time step      = 1.5000e-01
  blocks         = 500
  steps          = 1
  substeps       = 5
  current        = 0
  target samples = 5.1200e+05
  walkers/mpi    = 1

  stepsbetweensamples = 1
<parameter name="blocks" condition="int">500</parameter>
<parameter name="blocks_between_recompute" condition="int">0</parameter>
<parameter name="check_properties" condition="int">100</parameter>
<parameter name="checkproperties" condition="int">100</parameter>
<parameter name="current" condition="int">0</parameter>
<parameter name="dmcwalkersperthread" condition="real">5.0000e+02</parameter>
<parameter name="maxcpusecs" condition="real">3.6000e+05</parameter>
<parameter name="record_configs" condition="int">0</parameter>
<parameter name="record_walkers" condition="int">1</parameter>
<parameter name="recordconfigs" condition="int">0</parameter>
<parameter name="recordwalkers" condition="int">1</parameter>
<parameter name="rewind" condition="int">0</parameter>
<parameter name="samples" condition="real">5.1200e+05</parameter>
<parameter name="samplesperthread" condition="real">5.0000e+02</parameter>
<parameter name="steps" condition="int">1</parameter>
<parameter name="stepsbetweensamples" condition="int">1</parameter>
<parameter name="store_configs" condition="int">0</parameter>
<parameter name="storeconfigs" condition="int">0</parameter>
<parameter name="sub_steps" condition="int">5</parameter>
<parameter name="substeps" condition="int">5</parameter>
<parameter name="tau" condition="au">1.5000e-01</parameter>
<parameter name="time_step" condition="au">1.5000e-01</parameter>
<parameter name="timestep" condition="au">1.5000e-01</parameter>
<parameter name="use_drift" condition="string">no</parameter>
<parameter name="usedrift" condition="string">no</parameter>
<parameter name="walkers" condition="int">1</parameter>
<parameter name="warmup_steps" condition="int">0</parameter>
<parameter name="warmupsteps" condition="int">0</parameter>
  DumpConfig==false Nothing (configurations, state) will be saved.
  Walker Samples are dumped every 1 steps.
</vmc>
  EstimatorManagerBase::add replace LocalEnergy estimator.
  EstimatorManagerBase::add replace LocalEnergy estimator.
<optimization-report>
<vmc stage="main" blocks="500">
  Cannot make clones again. Use existing 1 clones
  Initial partition of walkers 0 1 
  Using Particle by Particle moves
  Walker moves without drift
  Total Sample Size   =512000
  Walker distribution on root = 0 1 
  Using Locality Approximation
===== Memory Usage after the buffer registration =====
Available memory on node 0, free + buffers : 82770 MB
Memory footprint by rank 0 on node 0       : 103 MB
==================================================
====================================================
  SimpleFixedNodeBranch::finalize after a VMC block
    QMC counter        = 4
    time step          = 0.15
    reference energy   = -86.549
    reference variance = 3.76934
====================================================
  Execution time = 4.5960e+00
</vmc>
<opt stage="setup">
  <log>
   Reading configurations from h5FileRoot Cr.log.s004
  QMCCostFunction is created with 1 threads.
  Using Nonlocal PP in Opt: NonLocalECP
   Number of samples loaded to each thread : 500 
  VMC Eavg = -8.6559e+01
  VMC Evar = 1.1566e+00
  Total weights = 5.1200e+05
  Execution time = 2.2612e+00
  </log>
</opt>
<opt stage="main" walkers="512000">
  <log>

*****************************************
Building overlap and Hamiltonian matrices
*****************************************

Among totally 82 optimized parameters, largest LM parameter change : 5.8832e-02 at parameter 23

******************************************************************************
Init Cost =  -8.2173e+01    New Cost =  -8.2173e+01  Delta Cost =  -3.6938e-04
******************************************************************************

The new set of parameters is valid. Updating the trial wave function!

*****************************************************************************
Applying the update for shift_i =   1.0000e-02     and shift_s =   3.9062e-03
*****************************************************************************
  Execution time = 7.9573e+00
  </log>
  <optVariables href="Cr.log.s004.opt.xml">
uu_0 2.8712e-01 1 1  ON 0
uu_1 1.2110e-01 1 1  ON 1
uu_2 3.5175e-02 1 1  ON 2
uu_3 -1.8838e-02 1 1  ON 3
uu_4 -7.0549e-02 1 1  ON 4
uu_5 -1.0218e-01 1 1  ON 5
uu_6 -1.0597e-01 1 1  ON 6
uu_7 -8.6162e-02 1 1  ON 7
uu_8 -5.1687e-02 1 1  ON 8
uu_9 -2.7487e-02 1 1  ON 9
ud_0 2.8286e-01 1 1  ON 10
ud_1 4.2607e-02 1 1  ON 11
ud_2 -1.9444e-02 1 1  ON 12
ud_3 -1.4657e-02 1 1  ON 13
ud_4 -2.0496e-02 1 1  ON 14
ud_5 -5.2997e-02 1 1  ON 15
ud_6 -6.2306e-02 1 1  ON 16
ud_7 -4.9638e-02 1 1  ON 17
ud_8 -1.4940e-02 1 1  ON 18
ud_9 2.8095e-04 1 1  ON 19
eCr_0 -2.0918e+00 1 1  ON 20
eCr_1 -1.3653e+00 1 1  ON 21
eCr_2 -3.0628e-02 1 1  ON 22
eCr_3 5.6894e-01 1 1  ON 23
eCr_4 6.5053e-01 1 1  ON 24
eCr_5 6.7463e-01 1 1  ON 25
eCr_6 7.9165e-01 1 1  ON 26
eCr_7 5.8743e-01 1 1  ON 27
eCr_8 2.2849e-01 1 1  ON 28
eCr_9 -1.6286e-03 1 1  ON 29
uuCr_0 2.5834e-06 1 1  ON 30
uuCr_1 3.8062e-06 1 1  ON 31
uuCr_2 2.3998e-07 1 1  ON 32
uuCr_3 -3.6226e-06 1 1  ON 33
uuCr_4 -4.3020e-07 1 1  ON 34
uuCr_5 -1.2129e-07 1 1  ON 35
uuCr_6 1.9215e-06 1 1  ON 36
uuCr_7 2.3129e-06 1 1  ON 37
uuCr_8 2.0715e-06 1 1  ON 38
uuCr_9 -4.6198e-06 1 1  ON 39
uuCr_10 -1.6342e-06 1 1  ON 40
uuCr_11 -1.5960e-06 1 1  ON 41
uuCr_12 -2.2793e-07 1 1  ON 42
uuCr_13 2.5869e-06 1 1  ON 43
uuCr_14 4.1023e-07 1 1  ON 44
uuCr_15 -2.0693e-08 1 1  ON 45
uuCr_16 4.1165e-06 1 1  ON 46
uuCr_17 2.0018e-06 1 1  ON 47
uuCr_18 -1.1733e-07 1 1  ON 48
uuCr_19 -6.0605e-08 1 1  ON 49
uuCr_20 -1.2695e-06 1 1  ON 50
uuCr_21 5.8266e-08 1 1  ON 51
uuCr_22 1.3267e-08 1 1  ON 52
uuCr_23 5.3154e-07 1 1  ON 53
uuCr_24 -3.6430e-08 1 1  ON 54
uuCr_25 -6.5412e-11 1 1  ON 55
udCr_0 4.3735e-06 1 1  ON 56
udCr_1 1.3580e-05 1 1  ON 57
udCr_2 4.6731e-06 1 1  ON 58
udCr_3 -6.4163e-06 1 1  ON 59
udCr_4 -1.3812e-06 1 1  ON 60
udCr_5 9.1246e-08 1 1  ON 61
udCr_6 1.9956e-05 1 1  ON 62
udCr_7 -3.4561e-06 1 1  ON 63
udCr_8 4.8759e-06 1 1  ON 64
udCr_9 -2.0436e-05 1 1  ON 65
udCr_10 -3.7793e-06 1 1  ON 66
udCr_11 -2.9398e-06 1 1  ON 67
udCr_12 -4.4511e-07 1 1  ON 68
udCr_13 7.6008e-06 1 1  ON 69
udCr_14 5.9056e-08 1 1  ON 70
udCr_15 2.8713e-08 1 1  ON 71
udCr_16 2.4602e-05 1 1  ON 72
udCr_17 1.1630e-07 1 1  ON 73
udCr_18 7.2859e-07 1 1  ON 74
udCr_19 -1.4597e-07 1 1  ON 75
udCr_20 -6.2037e-06 1 1  ON 76
udCr_21 4.4308e-07 1 1  ON 77
udCr_22 -3.6595e-08 1 1  ON 78
udCr_23 1.6682e-06 1 1  ON 79
udCr_24 -2.0289e-07 1 1  ON 80
udCr_25 2.5279e-08 1 1  ON 81
  </optVariables>
   Restore the number of walkers to 1, removing 0 walkers.
</opt>
</optimization-report>
  QMC Execution time = 7.9726e+00 secs 
  Reusing QMCFixedSampleLinearOptimize
 Using QMCCostFunction::QMCCostFunction

=========================================================
  Start QMCFixedSampleLinearOptimize
  File Root Cr.log.s005 append = no 
=========================================================
  Skip QMCDriver::putQMCInfo 
  Resetting Properties of the walkers 1 x 13

=========================================================
  Start VMC
  File Root Cr.log.s005 append = no 
=========================================================
Using existing walkers 
  Resetting Properties of the walkers 1 x 13

<vmc function="put">
  qmc_counter=4  my_counter=4
  time step      = 1.5000e-01
  blocks         = 500
  steps          = 1
  substeps       = 5
  current        = 0
  target samples = 5.1200e+05
  walkers/mpi    = 1

  stepsbetweensamples = 1
<parameter name="blocks" condition="int">500</parameter>
<parameter name="blocks_between_recompute" condition="int">0</parameter>
<parameter name="check_properties" condition="int">100</parameter>
<parameter name="checkproperties" condition="int">100</parameter>
<parameter name="current" condition="int">0</parameter>
<parameter name="dmcwalkersperthread" condition="real">5.0000e+02</parameter>
<parameter name="maxcpusecs" condition="real">3.6000e+05</parameter>
<parameter name="record_configs" condition="int">0</parameter>
<parameter name="record_walkers" condition="int">1</parameter>
<parameter name="recordconfigs" condition="int">0</parameter>
<parameter name="recordwalkers" condition="int">1</parameter>
<parameter name="rewind" condition="int">0</parameter>
<parameter name="samples" condition="real">5.1200e+05</parameter>
<parameter name="samplesperthread" condition="real">5.0000e+02</parameter>
<parameter name="steps" condition="int">1</parameter>
<parameter name="stepsbetweensamples" condition="int">1</parameter>
<parameter name="store_configs" condition="int">0</parameter>
<parameter name="storeconfigs" condition="int">0</parameter>
<parameter name="sub_steps" condition="int">5</parameter>
<parameter name="substeps" condition="int">5</parameter>
<parameter name="tau" condition="au">1.5000e-01</parameter>
<parameter name="time_step" condition="au">1.5000e-01</parameter>
<parameter name="timestep" condition="au">1.5000e-01</parameter>
<parameter name="use_drift" condition="string">no</parameter>
<parameter name="usedrift" condition="string">no</parameter>
<parameter name="walkers" condition="int">1</parameter>
<parameter name="warmup_steps" condition="int">0</parameter>
<parameter name="warmupsteps" condition="int">0</parameter>
  DumpConfig==false Nothing (configurations, state) will be saved.
  Walker Samples are dumped every 1 steps.
</vmc>
  EstimatorManagerBase::add replace LocalEnergy estimator.
  EstimatorManagerBase::add replace LocalEnergy estimator.
<optimization-report>
<vmc stage="main" blocks="500">
  Cannot make clones again. Use existing 1 clones
  Initial partition of walkers 0 1 
  Using Particle by Particle moves
  Walker moves without drift
  Total Sample Size   =512000
  Walker distribution on root = 0 1 
  Using Locality Approximation
===== Memory Usage after the buffer registration =====
Available memory on node 0, free + buffers : 82766 MB
Memory footprint by rank 0 on node 0       : 106 MB
==================================================
====================================================
  SimpleFixedNodeBranch::finalize after a VMC block
    QMC counter        = 5
    time step          = 0.15
    reference energy   = -86.5416
    reference variance = 1.34696
====================================================
  Execution time = 4.5589e+00
</vmc>
<opt stage="setup">
  <log>
   Reading configurations from h5FileRoot Cr.log.s005
  QMCCostFunction is created with 1 threads.
  Using Nonlocal PP in Opt: NonLocalECP
   Number of samples loaded to each thread : 500 
  VMC Eavg = -8.6559e+01
  VMC Evar = 1.1109e+00
  Total weights = 5.1200e+05
  Execution time = 2.2213e+00
  </log>
</opt>
<opt stage="main" walkers="512000">
  <log>

*****************************************
Building overlap and Hamiltonian matrices
*****************************************

Among totally 82 optimized parameters, largest LM parameter change : 4.7776e-02 at parameter 23

******************************************************************************
Init Cost =  -8.2175e+01    New Cost =  -8.2175e+01  Delta Cost =  -8.6816e-05
******************************************************************************

The new set of parameters is valid. Updating the trial wave function!

*****************************************************************************
Applying the update for shift_i =   1.0000e-02     and shift_s =   3.9062e-03
*****************************************************************************
  Execution time = 7.8598e+00
  </log>
  <optVariables href="Cr.log.s005.opt.xml">
uu_0 2.9916e-01 1 1  ON 0
uu_1 1.2876e-01 1 1  ON 1
uu_2 3.6768e-02 1 1  ON 2
uu_3 -2.2158e-02 1 1  ON 3
uu_4 -7.3127e-02 1 1  ON 4
uu_5 -1.0179e-01 1 1  ON 5
uu_6 -1.0579e-01 1 1  ON 6
uu_7 -8.4953e-02 1 1  ON 7
uu_8 -4.4434e-02 1 1  ON 8
uu_9 -2.7775e-02 1 1  ON 9
ud_0 2.7635e-01 1 1  ON 10
ud_1 3.6332e-02 1 1  ON 11
ud_2 -2.1225e-02 1 1  ON 12
ud_3 -1.0877e-02 1 1  ON 13
ud_4 -1.4511e-02 1 1  ON 14
ud_5 -4.7733e-02 1 1  ON 15
ud_6 -5.5254e-02 1 1  ON 16
ud_7 -4.7157e-02 1 1  ON 17
ud_8 -1.0836e-02 1 1  ON 18
ud_9 4.7796e-04 1 1  ON 19
eCr_0 -2.1252e+00 1 1  ON 20
eCr_1 -1.4017e+00 1 1  ON 21
eCr_2 -2.0168e-02 1 1  ON 22
eCr_3 6.1672e-01 1 1  ON 23
eCr_4 6.6613e-01 1 1  ON 24
eCr_5 6.4158e-01 1 1  ON 25
eCr_6 8.0222e-01 1 1  ON 26
eCr_7 5.9513e-01 1 1  ON 27
eCr_8 2.4146e-01 1 1  ON 28
eCr_9 -5.6620e-04 1 1  ON 29
uuCr_0 2.7382e-06 1 1  ON 30
uuCr_1 3.8252e-06 1 1  ON 31
uuCr_2 9.7686e-08 1 1  ON 32
uuCr_3 -3.7917e-06 1 1  ON 33
uuCr_4 -4.2548e-07 1 1  ON 34
uuCr_5 -1.6022e-07 1 1  ON 35
uuCr_6 1.6658e-06 1 1  ON 36
uuCr_7 2.3691e-06 1 1  ON 37
uuCr_8 2.1843e-06 1 1  ON 38
uuCr_9 -4.5071e-06 1 1  ON 39
uuCr_10 -1.7120e-06 1 1  ON 40
uuCr_11 -1.5726e-06 1 1  ON 41
uuCr_12 -2.9432e-07 1 1  ON 42
uuCr_13 2.6919e-06 1 1  ON 43
uuCr_14 4.9454e-07 1 1  ON 44
uuCr_15 -2.2554e-08 1 1  ON 45
uuCr_16 3.6254e-06 1 1  ON 46
uuCr_17 2.3782e-06 1 1  ON 47
uuCr_18 -1.6721e-07 1 1  ON 48
uuCr_19 -2.8271e-08 1 1  ON 49
uuCr_20 -1.1599e-06 1 1  ON 50
uuCr_21 2.1368e-08 1 1  ON 51
uuCr_22 1.5959e-08 1 1  ON 52
uuCr_23 4.6635e-07 1 1  ON 53
uuCr_24 -2.1748e-08 1 1  ON 54
uuCr_25 -2.2228e-09 1 1  ON 55
udCr_0 4.1367e-06 1 1  ON 56
udCr_1 1.3553e-05 1 1  ON 57
udCr_2 5.1586e-06 1 1  ON 58
udCr_3 -6.1774e-06 1 1  ON 59
udCr_4 -1.4044e-06 1 1  ON 60
udCr_5 1.4831e-07 1 1  ON 61
udCr_6 2.0260e-05 1 1  ON 62
udCr_7 -2.9981e-06 1 1  ON 63
udCr_8 5.2301e-06 1 1  ON 64
udCr_9 -2.0530e-05 1 1  ON 65
udCr_10 -3.5334e-06 1 1  ON 66
udCr_11 -3.6733e-06 1 1  ON 67
udCr_12 -4.6458e-07 1 1  ON 68
udCr_13 7.2284e-06 1 1  ON 69
udCr_14 8.3624e-08 1 1  ON 70
udCr_15 2.7879e-08 1 1  ON 71
udCr_16 2.5048e-05 1 1  ON 72
udCr_17 -5.8958e-07 1 1  ON 73
udCr_18 1.3721e-06 1 1  ON 74
udCr_19 -1.9561e-07 1 1  ON 75
udCr_20 -6.0948e-06 1 1  ON 76
udCr_21 3.5918e-07 1 1  ON 77
udCr_22 -2.6243e-08 1 1  ON 78
udCr_23 1.6078e-06 1 1  ON 79
udCr_24 -1.8431e-07 1 1  ON 80
udCr_25 2.2651e-08 1 1  ON 81
  </optVariables>
   Restore the number of walkers to 1, removing 0 walkers.
</opt>
</optimization-report>
  QMC Execution time = 7.8758e+00 secs 
  Reusing QMCFixedSampleLinearOptimize
 Using QMCCostFunction::QMCCostFunction

=========================================================
  Start QMCFixedSampleLinearOptimize
  File Root Cr.log.s006 append = no 
=========================================================
  Skip QMCDriver::putQMCInfo 
  Resetting Properties of the walkers 1 x 13

=========================================================
  Start VMC
  File Root Cr.log.s006 append = no 
=========================================================
Using existing walkers 
  Resetting Properties of the walkers 1 x 13

<vmc function="put">
  qmc_counter=5  my_counter=5
  time step      = 1.5000e-01
  blocks         = 500
  steps          = 1
  substeps       = 5
  current        = 0
  target samples = 5.1200e+05
  walkers/mpi    = 1

  stepsbetweensamples = 1
<parameter name="blocks" condition="int">500</parameter>
<parameter name="blocks_between_recompute" condition="int">0</parameter>
<parameter name="check_properties" condition="int">100</parameter>
<parameter name="checkproperties" condition="int">100</parameter>
<parameter name="current" condition="int">0</parameter>
<parameter name="dmcwalkersperthread" condition="real">5.0000e+02</parameter>
<parameter name="maxcpusecs" condition="real">3.6000e+05</parameter>
<parameter name="record_configs" condition="int">0</parameter>
<parameter name="record_walkers" condition="int">1</parameter>
<parameter name="recordconfigs" condition="int">0</parameter>
<parameter name="recordwalkers" condition="int">1</parameter>
<parameter name="rewind" condition="int">0</parameter>
<parameter name="samples" condition="real">5.1200e+05</parameter>
<parameter name="samplesperthread" condition="real">5.0000e+02</parameter>
<parameter name="steps" condition="int">1</parameter>
<parameter name="stepsbetweensamples" condition="int">1</parameter>
<parameter name="store_configs" condition="int">0</parameter>
<parameter name="storeconfigs" condition="int">0</parameter>
<parameter name="sub_steps" condition="int">5</parameter>
<parameter name="substeps" condition="int">5</parameter>
<parameter name="tau" condition="au">1.5000e-01</parameter>
<parameter name="time_step" condition="au">1.5000e-01</parameter>
<parameter name="timestep" condition="au">1.5000e-01</parameter>
<parameter name="use_drift" condition="string">no</parameter>
<parameter name="usedrift" condition="string">no</parameter>
<parameter name="walkers" condition="int">1</parameter>
<parameter name="warmup_steps" condition="int">0</parameter>
<parameter name="warmupsteps" condition="int">0</parameter>
  DumpConfig==false Nothing (configurations, state) will be saved.
  Walker Samples are dumped every 1 steps.
</vmc>
  EstimatorManagerBase::add replace LocalEnergy estimator.
  EstimatorManagerBase::add replace LocalEnergy estimator.
<optimization-report>
<vmc stage="main" blocks="500">
  Cannot make clones again. Use existing 1 clones
  Initial partition of walkers 0 1 
  Using Particle by Particle moves
  Walker moves without drift
  Total Sample Size   =512000
  Walker distribution on root = 0 1 
  Using Locality Approximation
===== Memory Usage after the buffer registration =====
Available memory on node 0, free + buffers : 82763 MB
Memory footprint by rank 0 on node 0       : 110 MB
==================================================
====================================================
  SimpleFixedNodeBranch::finalize after a VMC block
    QMC counter        = 6
    time step          = 0.15
    reference energy   = -86.5465
    reference variance = 0.882932
====================================================
  Execution time = 4.6086e+00
</vmc>
<opt stage="setup">
  <log>
   Reading configurations from h5FileRoot Cr.log.s006
  QMCCostFunction is created with 1 threads.
  Using Nonlocal PP in Opt: NonLocalECP
   Number of samples loaded to each thread : 500 
  VMC Eavg = -8.6560e+01
  VMC Evar = 1.1512e+00
  Total weights = 5.1200e+05
  Execution time = 2.2098e+00
  </log>
</opt>
<opt stage="main" walkers="512000">
  <log>

*****************************************
Building overlap and Hamiltonian matrices
*****************************************

Among totally 82 optimized parameters, largest LM parameter change : 4.5874e-02 at parameter 23

******************************************************************************
Init Cost =  -8.2174e+01    New Cost =  -8.2174e+01  Delta Cost =   3.2237e-05
******************************************************************************

The new set of parameters is valid. Updating the trial wave function!

*****************************************************************************
Applying the update for shift_i =   1.0000e-02     and shift_s =   3.9062e-03
*****************************************************************************
  Execution time = 7.8914e+00
  </log>
  <optVariables href="Cr.log.s006.opt.xml">
uu_0 2.9618e-01 1 1  ON 0
uu_1 1.2916e-01 1 1  ON 1
uu_2 3.8465e-02 1 1  ON 2
uu_3 -2.1269e-02 1 1  ON 3
uu_4 -7.2573e-02 1 1  ON 4
uu_5 -1.0148e-01 1 1  ON 5
uu_6 -1.0714e-01 1 1  ON 6
uu_7 -8.6690e-02 1 1  ON 7
uu_8 -4.8606e-02 1 1  ON 8
uu_9 -2.2008e-02 1 1  ON 9
ud_0 2.6619e-01 1 1  ON 10
ud_1 2.6047e-02 1 1  ON 11
ud_2 -3.0213e-02 1 1  ON 12
ud_3 -1.3053e-02 1 1  ON 13
ud_4 -1.0349e-02 1 1  ON 14
ud_5 -3.8278e-02 1 1  ON 15
ud_6 -4.7292e-02 1 1  ON 16
ud_7 -4.4306e-02 1 1  ON 17
ud_8 -9.9471e-03 1 1  ON 18
ud_9 5.5160e-03 1 1  ON 19
eCr_0 -2.1594e+00 1 1  ON 20
eCr_1 -1.4384e+00 1 1  ON 21
eCr_2 -7.5023e-03 1 1  ON 22
eCr_3 6.6259e-01 1 1  ON 23
eCr_4 6.7828e-01 1 1  ON 24
eCr_5 6.2248e-01 1 1  ON 25
eCr_6 7.9987e-01 1 1  ON 26
eCr_7 6.0497e-01 1 1  ON 27
eCr_8 2.5217e-01 1 1  ON 28
eCr_9 1.1883e-03 1 1  ON 29
uuCr_0 2.6956e-06 1 1  ON 30
uuCr_1 4.0073e-06 1 1  ON 31
uuCr_2 3.2974e-07 1 1  ON 32
uuCr_3 -3.5577e-06 1 1  ON 33
uuCr_4 -3.8144e-07 1 1  ON 34
uuCr_5 -7.5745e-08 1 1  ON 35
uuCr_6 2.3520e-06 1 1  ON 36
uuCr_7 2.2387e-06 1 1  ON 37
uuCr_8 2.1362e-06 1 1  ON 38
uuCr_9 -5.0823e-06 1 1  ON 39
uuCr_10 -1.5161e-06 1 1  ON 40
uuCr_11 -1.9223e-06 1 1  ON 41
uuCr_12 -2.0544e-07 1 1  ON 42
uuCr_13 2.4002e-06 1 1  ON 43
uuCr_14 3.8521e-07 1 1  ON 44
uuCr_15 -2.0416e-08 1 1  ON 45
uuCr_16 5.1328e-06 1 1  ON 46
uuCr_17 1.4328e-06 1 1  ON 47
uuCr_18 3.1508e-07 1 1  ON 48
uuCr_19 -1.1404e-07 1 1  ON 49
uuCr_20 -1.3737e-06 1 1  ON 50
uuCr_21 2.0085e-08 1 1  ON 51
uuCr_22 2.0794e-08 1 1  ON 52
uuCr_23 5.3538e-07 1 1  ON 53
uuCr_24 -3.1866e-08 1 1  ON 54
uuCr_25 -1.3989e-09 1 1  ON 55
udCr_0 4.4656e-06 1 1  ON 56
udCr_1 1.3506e-05 1 1  ON 57
udCr_2 4.6584e-06 1 1  ON 58
udCr_3 -6.3623e-06 1 1  ON 59
udCr_4 -1.3655e-06 1 1  ON 60
udCr_5 9.9305e-08 1 1  ON 61
udCr_6 1.9634e-05 1 1  ON 62
udCr_7 -2.9257e-06 1 1  ON 63
udCr_8 4.8709e-06 1 1  ON 64
udCr_9 -2.0346e-05 1 1  ON 65
udCr_10 -3.6301e-06 1 1  ON 66
udCr_11 -3.3664e-06 1 1  ON 67
udCr_12 -3.8959e-07 1 1  ON 68
udCr_13 7.3253e-06 1 1  ON 69
udCr_14 4.3548e-08 1 1  ON 70
udCr_15 2.4471e-08 1 1  ON 71
udCr_16 2.4685e-05 1 1  ON 72
udCr_17 -4.0968e-07 1 1  ON 73
udCr_18 1.2670e-06 1 1  ON 74
udCr_19 -2.2096e-07 1 1  ON 75
udCr_20 -6.0782e-06 1 1  ON 76
udCr_21 3.4485e-07 1 1  ON 77
udCr_22 -1.9817e-08 1 1  ON 78
udCr_23 1.6008e-06 1 1  ON 79
udCr_24 -1.7287e-07 1 1  ON 80
udCr_25 1.9644e-08 1 1  ON 81
  </optVariables>
   Restore the number of walkers to 1, removing 0 walkers.
</opt>
</optimization-report>
  QMC Execution time = 7.9072e+00 secs 
  Reusing QMCFixedSampleLinearOptimize
 Using QMCCostFunction::QMCCostFunction

=========================================================
  Start QMCFixedSampleLinearOptimize
  File Root Cr.log.s007 append = no 
=========================================================
  Skip QMCDriver::putQMCInfo 
  Resetting Properties of the walkers 1 x 13

=========================================================
  Start VMC
  File Root Cr.log.s007 append = no 
=========================================================
Using existing walkers 
  Resetting Properties of the walkers 1 x 13

<vmc function="put">
  qmc_counter=6  my_counter=6
  time step      = 1.5000e-01
  blocks         = 500
  steps          = 1
  substeps       = 5
  current        = 0
  target samples = 5.1200e+05
  walkers/mpi    = 1

  stepsbetweensamples = 1
<parameter name="blocks" condition="int">500</parameter>
<parameter name="blocks_between_recompute" condition="int">0</parameter>
<parameter name="check_properties" condition="int">100</parameter>
<parameter name="checkproperties" condition="int">100</parameter>
<parameter name="current" condition="int">0</parameter>
<parameter name="dmcwalkersperthread" condition="real">5.0000e+02</parameter>
<parameter name="maxcpusecs" condition="real">3.6000e+05</parameter>
<parameter name="record_configs" condition="int">0</parameter>
<parameter name="record_walkers" condition="int">1</parameter>
<parameter name="recordconfigs" condition="int">0</parameter>
<parameter name="recordwalkers" condition="int">1</parameter>
<parameter name="rewind" condition="int">0</parameter>
<parameter name="samples" condition="real">5.1200e+05</parameter>
<parameter name="samplesperthread" condition="real">5.0000e+02</parameter>
<parameter name="steps" condition="int">1</parameter>
<parameter name="stepsbetweensamples" condition="int">1</parameter>
<parameter name="store_configs" condition="int">0</parameter>
<parameter name="storeconfigs" condition="int">0</parameter>
<parameter name="sub_steps" condition="int">5</parameter>
<parameter name="substeps" condition="int">5</parameter>
<parameter name="tau" condition="au">1.5000e-01</parameter>
<parameter name="time_step" condition="au">1.5000e-01</parameter>
<parameter name="timestep" condition="au">1.5000e-01</parameter>
<parameter name="use_drift" condition="string">no</parameter>
<parameter name="usedrift" condition="string">no</parameter>
<parameter name="walkers" condition="int">1</parameter>
<parameter name="warmup_steps" condition="int">0</parameter>
<parameter name="warmupsteps" condition="int">0</parameter>
  DumpConfig==false Nothing (configurations, state) will be saved.
  Walker Samples are dumped every 1 steps.
</vmc>
  EstimatorManagerBase::add replace LocalEnergy estimator.
  EstimatorManagerBase::add replace LocalEnergy estimator.
<optimization-report>
<vmc stage="main" blocks="500">
  Cannot make clones again. Use existing 1 clones
  Initial partition of walkers 0 1 
  Using Particle by Particle moves
  Walker moves without drift
  Total Sample Size   =512000
  Walker distribution on root = 0 1 
  Using Locality Approximation
===== Memory Usage after the buffer registration =====
Available memory on node 0, free + buffers : 82759 MB
Memory footprint by rank 0 on node 0       : 113 MB
==================================================
====================================================
  SimpleFixedNodeBranch::finalize after a VMC block
    QMC counter        = 7
    time step          = 0.15
    reference energy   = -86.569
    reference variance = 1.06221
====================================================
  Execution time = 4.3905e+00
</vmc>
<opt stage="setup">
  <log>
   Reading configurations from h5FileRoot Cr.log.s007
  QMCCostFunction is created with 1 threads.
  Using Nonlocal PP in Opt: NonLocalECP
   Number of samples loaded to each thread : 500 
  VMC Eavg = -8.6559e+01
  VMC Evar = 1.1255e+00
  Total weights = 5.1200e+05
  Execution time = 2.1923e+00
  </log>
</opt>
<opt stage="main" walkers="512000">
  <log>

*****************************************
Building overlap and Hamiltonian matrices
*****************************************

Among totally 82 optimized parameters, largest LM parameter change : 4.0676e-02 at parameter 23

******************************************************************************
Init Cost =  -8.2174e+01    New Cost =  -8.2175e+01  Delta Cost =  -4.8765e-04
******************************************************************************

The new set of parameters is valid. Updating the trial wave function!

*****************************************************************************
Applying the update for shift_i =   1.0000e-02     and shift_s =   3.9062e-03
*****************************************************************************
  Execution time = 7.6376e+00
  </log>
  <optVariables href="Cr.log.s007.opt.xml">
uu_0 2.9672e-01 1 1  ON 0
uu_1 1.3021e-01 1 1  ON 1
uu_2 4.3087e-02 1 1  ON 2
uu_3 -1.0868e-02 1 1  ON 3
uu_4 -6.1512e-02 1 1  ON 4
uu_5 -8.9489e-02 1 1  ON 5
uu_6 -9.6599e-02 1 1  ON 6
uu_7 -8.5783e-02 1 1  ON 7
uu_8 -5.0624e-02 1 1  ON 8
uu_9 -2.6435e-02 1 1  ON 9
ud_0 2.5561e-01 1 1  ON 10
ud_1 2.3327e-02 1 1  ON 11
ud_2 -2.4347e-02 1 1  ON 12
ud_3 -4.9606e-03 1 1  ON 13
ud_4 -4.5796e-03 1 1  ON 14
ud_5 -3.2445e-02 1 1  ON 15
ud_6 -4.7283e-02 1 1  ON 16
ud_7 -3.5314e-02 1 1  ON 17
ud_8 -8.1499e-03 1 1  ON 18
ud_9 -2.9872e-04 1 1  ON 19
eCr_0 -2.1949e+00 1 1  ON 20
eCr_1 -1.4663e+00 1 1  ON 21
eCr_2 1.0108e-03 1 1  ON 22
eCr_3 7.0327e-01 1 1  ON 23
eCr_4 6.9855e-01 1 1  ON 24
eCr_5 6.0125e-01 1 1  ON 25
eCr_6 8.0101e-01 1 1  ON 26
eCr_7 6.1102e-01 1 1  ON 27
eCr_8 2.6431e-01 1 1  ON 28
eCr_9 2.0853e-03 1 1  ON 29
uuCr_0 2.6165e-06 1 1  ON 30
uuCr_1 3.7463e-06 1 1  ON 31
uuCr_2 3.1372e-07 1 1  ON 32
uuCr_3 -3.5490e-06 1 1  ON 33
uuCr_4 -3.9981e-07 1 1  ON 34
uuCr_5 -9.1676e-08 1 1  ON 35
uuCr_6 1.8472e-06 1 1  ON 36
uuCr_7 2.5400e-06 1 1  ON 37
uuCr_8 2.2578e-06 1 1  ON 38
uuCr_9 -4.6321e-06 1 1  ON 39
uuCr_10 -1.4874e-06 1 1  ON 40
uuCr_11 -1.9376e-06 1 1  ON 41
uuCr_12 -2.6331e-07 1 1  ON 42
uuCr_13 2.4119e-06 1 1  ON 43
uuCr_14 4.6825e-07 1 1  ON 44
uuCr_15 -2.2677e-08 1 1  ON 45
uuCr_16 4.2138e-06 1 1  ON 46
uuCr_17 1.8645e-06 1 1  ON 47
uuCr_18 1.2500e-07 1 1  ON 48
uuCr_19 -5.5931e-08 1 1  ON 49
uuCr_20 -1.2028e-06 1 1  ON 50
uuCr_21 8.4546e-09 1 1  ON 51
uuCr_22 1.6487e-08 1 1  ON 52
uuCr_23 4.8501e-07 1 1  ON 53
uuCr_24 -2.5203e-08 1 1  ON 54
uuCr_25 -1.2907e-09 1 1  ON 55
udCr_0 4.4331e-06 1 1  ON 56
udCr_1 1.3882e-05 1 1  ON 57
udCr_2 4.8265e-06 1 1  ON 58
udCr_3 -6.3567e-06 1 1  ON 59
udCr_4 -1.4190e-06 1 1  ON 60
udCr_5 3.6367e-07 1 1  ON 61
udCr_6 2.0415e-05 1 1  ON 62
udCr_7 -3.3565e-06 1 1  ON 63
udCr_8 5.0405e-06 1 1  ON 64
udCr_9 -2.0966e-05 1 1  ON 65
udCr_10 -3.7426e-06 1 1  ON 66
udCr_11 -3.4320e-06 1 1  ON 67
udCr_12 -4.3993e-07 1 1  ON 68
udCr_13 7.5975e-06 1 1  ON 69
udCr_14 4.5513e-08 1 1  ON 70
udCr_15 3.0042e-08 1 1  ON 71
udCr_16 2.6039e-05 1 1  ON 72
udCr_17 -5.3486e-07 1 1  ON 73
udCr_18 1.3185e-06 1 1  ON 74
udCr_19 -1.9936e-07 1 1  ON 75
udCr_20 -6.5060e-06 1 1  ON 76
udCr_21 3.9019e-07 1 1  ON 77
udCr_22 -3.0314e-08 1 1  ON 78
udCr_23 1.7498e-06 1 1  ON 79
udCr_24 -2.0246e-07 1 1  ON 80
udCr_25 2.5250e-08 1 1  ON 81
  </optVariables>
   Restore the number of walkers to 1, removing 0 walkers.
</opt>
</optimization-report>
  QMC Execution time = 7.6536e+00 secs 
  Reusing QMCFixedSampleLinearOptimize
 Using QMCCostFunction::QMCCostFunction

=========================================================
  Start QMCFixedSampleLinearOptimize
  File Root Cr.log.s008 append = no 
=========================================================
  Skip QMCDriver::putQMCInfo 
  Resetting Properties of the walkers 1 x 13

=========================================================
  Start VMC
  File Root Cr.log.s008 append = no 
=========================================================
Using existing walkers 
  Resetting Properties of the walkers 1 x 13

<vmc function="put">
  qmc_counter=7  my_counter=7
  time step      = 1.5000e-01
  blocks         = 500
  steps          = 1
  substeps       = 5
  current        = 0
  target samples = 5.1200e+05
  walkers/mpi    = 1

  stepsbetweensamples = 1
<parameter name="blocks" condition="int">500</parameter>
<parameter name="blocks_between_recompute" condition="int">0</parameter>
<parameter name="check_properties" condition="int">100</parameter>
<parameter name="checkproperties" condition="int">100</parameter>
<parameter name="current" condition="int">0</parameter>
<parameter name="dmcwalkersperthread" condition="real">5.0000e+02</parameter>
<parameter name="maxcpusecs" condition="real">3.6000e+05</parameter>
<parameter name="record_configs" condition="int">0</parameter>
<parameter name="record_walkers" condition="int">1</parameter>
<parameter name="recordconfigs" condition="int">0</parameter>
<parameter name="recordwalkers" condition="int">1</parameter>
<parameter name="rewind" condition="int">0</parameter>
<parameter name="samples" condition="real">5.1200e+05</parameter>
<parameter name="samplesperthread" condition="real">5.0000e+02</parameter>
<parameter name="steps" condition="int">1</parameter>
<parameter name="stepsbetweensamples" condition="int">1</parameter>
<parameter name="store_configs" condition="int">0</parameter>
<parameter name="storeconfigs" condition="int">0</parameter>
<parameter name="sub_steps" condition="int">5</parameter>
<parameter name="substeps" condition="int">5</parameter>
<parameter name="tau" condition="au">1.5000e-01</parameter>
<parameter name="time_step" condition="au">1.5000e-01</parameter>
<parameter name="timestep" condition="au">1.5000e-01</parameter>
<parameter name="use_drift" condition="string">no</parameter>
<parameter name="usedrift" condition="string">no</parameter>
<parameter name="walkers" condition="int">1</parameter>
<parameter name="warmup_steps" condition="int">0</parameter>
<parameter name="warmupsteps" condition="int">0</parameter>
  DumpConfig==false Nothing (configurations, state) will be saved.
  Walker Samples are dumped every 1 steps.
</vmc>
  EstimatorManagerBase::add replace LocalEnergy estimator.
  EstimatorManagerBase::add replace LocalEnergy estimator.
<optimization-report>
<vmc stage="main" blocks="500">
  Cannot make clones again. Use existing 1 clones
  Initial partition of walkers 0 1 
  Using Particle by Particle moves
  Walker moves without drift
  Total Sample Size   =512000
  Walker distribution on root = 0 1 
  Using Locality Approximation
===== Memory Usage after the buffer registration =====
Available memory on node 0, free + buffers : 82755 MB
Memory footprint by rank 0 on node 0       : 116 MB
==================================================
====================================================
  SimpleFixedNodeBranch::finalize after a VMC block
    QMC counter        = 8
    time step          = 0.15
    reference energy   = -86.5036
    reference variance = 0.955973
====================================================
  Execution time = 4.3641e+00
</vmc>
<opt stage="setup">
  <log>
   Reading configurations from h5FileRoot Cr.log.s008
  QMCCostFunction is created with 1 threads.
  Using Nonlocal PP in Opt: NonLocalECP
   Number of samples loaded to each thread : 500 
  VMC Eavg = -8.6560e+01
  VMC Evar = 1.2671e+00
  Total weights = 5.1200e+05
  Execution time = 2.1658e+00
  </log>
</opt>
<opt stage="main" walkers="512000">
  <log>

*****************************************
Building overlap and Hamiltonian matrices
*****************************************

Among totally 82 optimized parameters, largest LM parameter change : 3.7881e-02 at parameter 20

******************************************************************************
Init Cost =  -8.2168e+01    New Cost =  -8.2168e+01  Delta Cost =  -2.5069e-04
******************************************************************************

The new set of parameters is valid. Updating the trial wave function!

*****************************************************************************
Applying the update for shift_i =   1.0000e-02     and shift_s =   3.9062e-03
*****************************************************************************
  Execution time = 7.5637e+00
  </log>
  <optVariables href="Cr.log.s008.opt.xml">
uu_0 3.0147e-01 1 1  ON 0
uu_1 1.3258e-01 1 1  ON 1
uu_2 4.4140e-02 1 1  ON 2
uu_3 -9.8063e-03 1 1  ON 3
uu_4 -5.9377e-02 1 1  ON 4
uu_5 -8.7442e-02 1 1  ON 5
uu_6 -9.6223e-02 1 1  ON 6
uu_7 -8.5593e-02 1 1  ON 7
uu_8 -5.0752e-02 1 1  ON 8
uu_9 -2.4463e-02 1 1  ON 9
ud_0 2.4543e-01 1 1  ON 10
ud_1 1.3966e-02 1 1  ON 11
ud_2 -2.5974e-02 1 1  ON 12
ud_3 -1.0984e-03 1 1  ON 13
ud_4 1.5959e-03 1 1  ON 14
ud_5 -2.5501e-02 1 1  ON 15
ud_6 -4.1191e-02 1 1  ON 16
ud_7 -3.7232e-02 1 1  ON 17
ud_8 -6.6984e-03 1 1  ON 18
ud_9 -8.3142e-04 1 1  ON 19
eCr_0 -2.2328e+00 1 1  ON 20
eCr_1 -1.4906e+00 1 1  ON 21
eCr_2 9.5766e-03 1 1  ON 22
eCr_3 7.4014e-01 1 1  ON 23
eCr_4 7.1823e-01 1 1  ON 24
eCr_5 5.8685e-01 1 1  ON 25
eCr_6 7.9602e-01 1 1  ON 26
eCr_7 6.1563e-01 1 1  ON 27
eCr_8 2.7536e-01 1 1  ON 28
eCr_9 4.2934e-03 1 1  ON 29
uuCr_0 2.6257e-06 1 1  ON 30
uuCr_1 3.9640e-06 1 1  ON 31
uuCr_2 1.4787e-07 1 1  ON 32
uuCr_3 -3.8131e-06 1 1  ON 33
uuCr_4 -4.5879e-07 1 1  ON 34
uuCr_5 -2.2860e-08 1 1  ON 35
uuCr_6 1.7957e-06 1 1  ON 36
uuCr_7 2.4124e-06 1 1  ON 37
uuCr_8 2.2027e-06 1 1  ON 38
uuCr_9 -4.4205e-06 1 1  ON 39
uuCr_10 -1.7613e-06 1 1  ON 40
uuCr_11 -1.6125e-06 1 1  ON 41
uuCr_12 -3.1215e-07 1 1  ON 42
uuCr_13 2.5678e-06 1 1  ON 43
uuCr_14 4.9162e-07 1 1  ON 44
uuCr_15 -2.0019e-08 1 1  ON 45
uuCr_16 3.6972e-06 1 1  ON 46
uuCr_17 2.2137e-06 1 1  ON 47
uuCr_18 -6.0589e-08 1 1  ON 48
uuCr_19 -1.8770e-08 1 1  ON 49
uuCr_20 -1.1090e-06 1 1  ON 50
uuCr_21 1.4695e-09 1 1  ON 51
uuCr_22 1.4904e-08 1 1  ON 52
uuCr_23 4.3339e-07 1 1  ON 53
uuCr_24 -1.7235e-08 1 1  ON 54
uuCr_25 -2.0336e-09 1 1  ON 55
udCr_0 4.6582e-06 1 1  ON 56
udCr_1 1.3852e-05 1 1  ON 57
udCr_2 4.3120e-06 1 1  ON 58
udCr_3 -6.6861e-06 1 1  ON 59
udCr_4 -1.4887e-06 1 1  ON 60
udCr_5 3.2531e-07 1 1  ON 61
udCr_6 1.9841e-05 1 1  ON 62
udCr_7 -3.5471e-06 1 1  ON 63
udCr_8 5.0412e-06 1 1  ON 64
udCr_9 -2.0648e-05 1 1  ON 65
udCr_10 -4.0761e-06 1 1  ON 66
udCr_11 -2.7704e-06 1 1  ON 67
udCr_12 -5.9761e-07 1 1  ON 68
udCr_13 8.2071e-06 1 1  ON 69
udCr_14 2.4033e-07 1 1  ON 70
udCr_15 2.5151e-08 1 1  ON 71
udCr_16 2.4861e-05 1 1  ON 72
udCr_17 9.9541e-07 1 1  ON 73
udCr_18 4.1254e-07 1 1  ON 74
udCr_19 -2.0297e-08 1 1  ON 75
udCr_20 -6.6063e-06 1 1  ON 76
udCr_21 4.2618e-07 1 1  ON 77
udCr_22 -4.5103e-08 1 1  ON 78
udCr_23 1.8235e-06 1 1  ON 79
udCr_24 -2.0893e-07 1 1  ON 80
udCr_25 2.6785e-08 1 1  ON 81
  </optVariables>
   Restore the number of walkers to 1, removing 0 walkers.
</opt>
</optimization-report>
  QMC Execution time = 7.5796e+00 secs 
  Reusing QMCFixedSampleLinearOptimize
 Using QMCCostFunction::QMCCostFunction

=========================================================
  Start QMCFixedSampleLinearOptimize
  File Root Cr.log.s009 append = no 
=========================================================
  Skip QMCDriver::putQMCInfo 
  Resetting Properties of the walkers 1 x 13

=========================================================
  Start VMC
  File Root Cr.log.s009 append = no 
=========================================================
Using existing walkers 
  Resetting Properties of the walkers 1 x 13

<vmc function="put">
  qmc_counter=8  my_counter=8
  time step      = 1.5000e-01
  blocks         = 500
  steps          = 1
  substeps       = 5
  current        = 0
  target samples = 5.1200e+05
  walkers/mpi    = 1

  stepsbetweensamples = 1
<parameter name="blocks" condition="int">500</parameter>
<parameter name="blocks_between_recompute" condition="int">0</parameter>
<parameter name="check_properties" condition="int">100</parameter>
<parameter name="checkproperties" condition="int">100</parameter>
<parameter name="current" condition="int">0</parameter>
<parameter name="dmcwalkersperthread" condition="real">5.0000e+02</parameter>
<parameter name="maxcpusecs" condition="real">3.6000e+05</parameter>
<parameter name="record_configs" condition="int">0</parameter>
<parameter name="record_walkers" condition="int">1</parameter>
<parameter name="recordconfigs" condition="int">0</parameter>
<parameter name="recordwalkers" condition="int">1</parameter>
<parameter name="rewind" condition="int">0</parameter>
<parameter name="samples" condition="real">5.1200e+05</parameter>
<parameter name="samplesperthread" condition="real">5.0000e+02</parameter>
<parameter name="steps" condition="int">1</parameter>
<parameter name="stepsbetweensamples" condition="int">1</parameter>
<parameter name="store_configs" condition="int">0</parameter>
<parameter name="storeconfigs" condition="int">0</parameter>
<parameter name="sub_steps" condition="int">5</parameter>
<parameter name="substeps" condition="int">5</parameter>
<parameter name="tau" condition="au">1.5000e-01</parameter>
<parameter name="time_step" condition="au">1.5000e-01</parameter>
<parameter name="timestep" condition="au">1.5000e-01</parameter>
<parameter name="use_drift" condition="string">no</parameter>
<parameter name="usedrift" condition="string">no</parameter>
<parameter name="walkers" condition="int">1</parameter>
<parameter name="warmup_steps" condition="int">0</parameter>
<parameter name="warmupsteps" condition="int">0</parameter>
  DumpConfig==false Nothing (configurations, state) will be saved.
  Walker Samples are dumped every 1 steps.
</vmc>
  EstimatorManagerBase::add replace LocalEnergy estimator.
  EstimatorManagerBase::add replace LocalEnergy estimator.
<optimization-report>
<vmc stage="main" blocks="500">
  Cannot make clones again. Use existing 1 clones
  Initial partition of walkers 0 1 
  Using Particle by Particle moves
  Walker moves without drift
  Total Sample Size   =512000
  Walker distribution on root = 0 1 
  Using Locality Approximation
===== Memory Usage after the buffer registration =====
Available memory on node 0, free + buffers : 82751 MB
Memory footprint by rank 0 on node 0       : 119 MB
==================================================
====================================================
  SimpleFixedNodeBranch::finalize after a VMC block
    QMC counter        = 9
    time step          = 0.15
    reference energy   = -86.5997
    reference variance = 1.18211
====================================================
  Execution time = 4.1633e+00
</vmc>
<opt stage="setup">
  <log>
   Reading configurations from h5FileRoot Cr.log.s009
  QMCCostFunction is created with 1 threads.
  Using Nonlocal PP in Opt: NonLocalECP
   Number of samples loaded to each thread : 500 
  VMC Eavg = -8.6559e+01
  VMC Evar = 1.1093e+00
  Total weights = 5.1200e+05
  Execution time = 2.1473e+00
  </log>
</opt>
<opt stage="main" walkers="512000">
  <log>

*****************************************
Building overlap and Hamiltonian matrices
*****************************************

Among totally 82 optimized parameters, largest LM parameter change : 3.5606e-02 at parameter 23

******************************************************************************
Init Cost =  -8.2176e+01    New Cost =  -8.2176e+01  Delta Cost =  -2.7052e-04
******************************************************************************

The new set of parameters is valid. Updating the trial wave function!

*****************************************************************************
Applying the update for shift_i =   1.0000e-02     and shift_s =   3.9062e-03
*****************************************************************************
  Execution time = 7.5535e+00
  </log>
  <optVariables href="Cr.log.s009.opt.xml">
uu_0 3.0283e-01 1 1  ON 0
uu_1 1.3617e-01 1 1  ON 1
uu_2 5.2004e-02 1 1  ON 2
uu_3 -1.8600e-03 1 1  ON 3
uu_4 -5.4498e-02 1 1  ON 4
uu_5 -8.1892e-02 1 1  ON 5
uu_6 -8.9144e-02 1 1  ON 6
uu_7 -7.9242e-02 1 1  ON 7
uu_8 -4.7197e-02 1 1  ON 8
uu_9 -2.5314e-02 1 1  ON 9
ud_0 2.3682e-01 1 1  ON 10
ud_1 7.1216e-03 1 1  ON 11
ud_2 -2.7968e-02 1 1  ON 12
ud_3 4.2983e-03 1 1  ON 13
ud_4 1.0483e-02 1 1  ON 14
ud_5 -2.0416e-02 1 1  ON 15
ud_6 -3.4442e-02 1 1  ON 16
ud_7 -3.1796e-02 1 1  ON 17
ud_8 -3.8207e-03 1 1  ON 18
ud_9 4.3330e-03 1 1  ON 19
eCr_0 -2.2672e+00 1 1  ON 20
eCr_1 -1.5134e+00 1 1  ON 21
eCr_2 1.6728e-02 1 1  ON 22
eCr_3 7.7575e-01 1 1  ON 23
eCr_4 7.3600e-01 1 1  ON 24
eCr_5 5.7163e-01 1 1  ON 25
eCr_6 7.9161e-01 1 1  ON 26
eCr_7 6.2163e-01 1 1  ON 27
eCr_8 2.9080e-01 1 1  ON 28
eCr_9 5.6778e-03 1 1  ON 29
uuCr_0 2.6957e-06 1 1  ON 30
uuCr_1 3.9657e-06 1 1  ON 31
uuCr_2 2.7866e-07 1 1  ON 32
uuCr_3 -3.6253e-06 1 1  ON 33
uuCr_4 -4.3512e-07 1 1  ON 34
uuCr_5 1.6512e-08 1 1  ON 35
uuCr_6 2.2815e-06 1 1  ON 36
uuCr_7 2.0811e-06 1 1  ON 37
uuCr_8 2.2316e-06 1 1  ON 38
uuCr_9 -5.0178e-06 1 1  ON 39
uuCr_10 -1.6147e-06 1 1  ON 40
uuCr_11 -1.6759e-06 1 1  ON 41
uuCr_12 -3.0268e-07 1 1  ON 42
[...]
====================================================
  Execution time = 4.2106e+00
</vmc>
<opt stage="setup">
  <log>
   Reading configurations from h5FileRoot Cr.log.s020
  QMCCostFunction is created with 1 threads.
  Using Nonlocal PP in Opt: NonLocalECP
   Number of samples loaded to each thread : 500 
  VMC Eavg = -8.6561e+01
  VMC Evar = 1.1219e+00
  Total weights = 5.1200e+05
  Execution time = 2.1885e+00
  </log>
</opt>
<opt stage="main" walkers="512000">
  <log>

*****************************************
Building overlap and Hamiltonian matrices
*****************************************

Among totally 82 optimized parameters, largest LM parameter change : 2.2449e-02 at parameter 20

******************************************************************************
Init Cost =  -8.2176e+01    New Cost =  -8.2177e+01  Delta Cost =  -5.3021e-04
******************************************************************************

The new set of parameters is valid. Updating the trial wave function!

*****************************************************************************
Applying the update for shift_i =   1.0000e-02     and shift_s =   3.9062e-03
*****************************************************************************
  Execution time = 7.4606e+00
  </log>
  <optVariables href="Cr.log.s020.opt.xml">
uu_0 2.8935e-01 1 1  ON 0
uu_1 1.2289e-01 1 1  ON 1
uu_2 4.1423e-02 1 1  ON 2
uu_3 -4.7683e-03 1 1  ON 3
uu_4 -4.9090e-02 1 1  ON 4
uu_5 -7.4681e-02 1 1  ON 5
uu_6 -8.4770e-02 1 1  ON 6
uu_7 -8.2355e-02 1 1  ON 7
uu_8 -5.8262e-02 1 1  ON 8
uu_9 -3.1190e-02 1 1  ON 9
ud_0 1.6348e-01 1 1  ON 10
ud_1 -5.2112e-02 1 1  ON 11
ud_2 -5.5930e-02 1 1  ON 12
ud_3 7.4070e-03 1 1  ON 13
ud_4 2.8186e-02 1 1  ON 14
ud_5 8.1157e-03 1 1  ON 15
ud_6 -5.8868e-03 1 1  ON 16
ud_7 -1.2206e-02 1 1  ON 17
ud_8 4.9263e-03 1 1  ON 18
ud_9 2.3558e-02 1 1  ON 19
eCr_0 -2.5524e+00 1 1  ON 20
eCr_1 -1.7180e+00 1 1  ON 21
eCr_2 5.2934e-02 1 1  ON 22
eCr_3 1.0423e+00 1 1  ON 23
eCr_4 9.3209e-01 1 1  ON 24
eCr_5 4.1789e-01 1 1  ON 25
eCr_6 7.3462e-01 1 1  ON 26
eCr_7 6.6093e-01 1 1  ON 27
eCr_8 4.0427e-01 1 1  ON 28
eCr_9 5.2662e-02 1 1  ON 29
uuCr_0 2.7365e-06 1 1  ON 30
uuCr_1 3.7588e-06 1 1  ON 31
uuCr_2 -1.1675e-07 1 1  ON 32
uuCr_3 -3.5457e-06 1 1  ON 33
uuCr_4 -3.4370e-07 1 1  ON 34
uuCr_5 2.7489e-07 1 1  ON 35
uuCr_6 1.5403e-06 1 1  ON 36
uuCr_7 1.9371e-06 1 1  ON 37
uuCr_8 1.7681e-06 1 1  ON 38
uuCr_9 -4.3190e-06 1 1  ON 39
uuCr_10 -1.5213e-06 1 1  ON 40
uuCr_11 -1.3016e-06 1 1  ON 41
uuCr_12 -2.2697e-07 1 1  ON 42
uuCr_13 2.3787e-06 1 1  ON 43
uuCr_14 4.0502e-07 1 1  ON 44
uuCr_15 -1.9311e-08 1 1  ON 45
uuCr_16 3.9310e-06 1 1  ON 46
uuCr_17 2.0114e-06 1 1  ON 47
uuCr_18 -2.2976e-07 1 1  ON 48
uuCr_19 -1.6413e-09 1 1  ON 49
uuCr_20 -1.2067e-06 1 1  ON 50
uuCr_21 3.3687e-08 1 1  ON 51
uuCr_22 8.8640e-09 1 1  ON 52
uuCr_23 4.8937e-07 1 1  ON 53
uuCr_24 -2.8538e-08 1 1  ON 54
uuCr_25 -4.7821e-10 1 1  ON 55
udCr_0 4.3748e-06 1 1  ON 56
udCr_1 1.3973e-05 1 1  ON 57
udCr_2 4.0456e-06 1 1  ON 58
udCr_3 -6.3556e-06 1 1  ON 59
udCr_4 -1.4090e-06 1 1  ON 60
udCr_5 8.1892e-07 1 1  ON 61
udCr_6 1.9883e-05 1 1  ON 62
udCr_7 -3.5025e-06 1 1  ON 63
udCr_8 4.0725e-06 1 1  ON 64
udCr_9 -2.0401e-05 1 1  ON 65
udCr_10 -3.9141e-06 1 1  ON 66
udCr_11 -2.4125e-06 1 1  ON 67
udCr_12 -2.6705e-07 1 1  ON 68
udCr_13 7.3540e-06 1 1  ON 69
udCr_14 -1.1375e-07 1 1  ON 70
udCr_15 2.6470e-08 1 1  ON 71
udCr_16 2.5290e-05 1 1  ON 72
udCr_17 -3.2302e-07 1 1  ON 73
udCr_18 4.8163e-07 1 1  ON 74
udCr_19 -1.4325e-07 1 1  ON 75
udCr_20 -6.2174e-06 1 1  ON 76
udCr_21 4.6308e-07 1 1  ON 77
udCr_22 -4.0800e-08 1 1  ON 78
udCr_23 1.6669e-06 1 1  ON 79
udCr_24 -1.9947e-07 1 1  ON 80
udCr_25 2.4995e-08 1 1  ON 81
  </optVariables>
   Restore the number of walkers to 1, removing 0 walkers.
</opt>
</optimization-report>
  QMC Execution time = 7.4793e+00 secs 

=========================================================
  Start VMC
  File Root Cr.log.s021 append = no 
=========================================================
  Using the current 1 walkers.
  Total number of walkers: 1.0240e+03
  Total weight: 1.0240e+03
  Resetting Properties of the walkers 1 x 13

<vmc function="put">
  qmc_counter=0  my_counter=0
  time step      = 1.5000e-01
  blocks         = 200
  steps          = 1
  substeps       = 30
  current        = 0
  target samples = 4.0960e+03
  walkers/mpi    = 1

  stepsbetweensamples = 50
<parameter name="blocks" condition="int">200</parameter>
<parameter name="blocks_between_recompute" condition="int">0</parameter>
<parameter name="check_properties" condition="int">100</parameter>
<parameter name="checkproperties" condition="int">100</parameter>
<parameter name="current" condition="int">0</parameter>
<parameter name="dmcwalkersperthread" condition="real">4.0000e+00</parameter>
<parameter name="maxcpusecs" condition="real">3.6000e+05</parameter>
<parameter name="record_configs" condition="int">0</parameter>
<parameter name="record_walkers" condition="int">50</parameter>
<parameter name="recordconfigs" condition="int">0</parameter>
<parameter name="recordwalkers" condition="int">50</parameter>
<parameter name="rewind" condition="int">0</parameter>
<parameter name="samples" condition="real">4.0960e+03</parameter>
<parameter name="samplesperthread" condition="real">4.0000e+00</parameter>
<parameter name="steps" condition="int">1</parameter>
<parameter name="stepsbetweensamples" condition="int">50</parameter>
<parameter name="store_configs" condition="int">0</parameter>
<parameter name="storeconfigs" condition="int">0</parameter>
<parameter name="sub_steps" condition="int">30</parameter>
<parameter name="substeps" condition="int">30</parameter>
<parameter name="tau" condition="au">1.5000e-01</parameter>
<parameter name="time_step" condition="au">1.5000e-01</parameter>
<parameter name="timestep" condition="au">1.5000e-01</parameter>
<parameter name="use_drift" condition="string">no</parameter>
<parameter name="usedrift" condition="string">no</parameter>
<parameter name="walkers" condition="int">1</parameter>
<parameter name="warmup_steps" condition="int">100</parameter>
<parameter name="warmupsteps" condition="int">100</parameter>
  DumpConfig==false Nothing (configurations, state) will be saved.
  Walker Samples are dumped every 50 steps.
</vmc>
  EstimatorManagerBase::add replace LocalEnergy estimator.
  Cannot make clones again. Use existing 1 clones
  Initial partition of walkers 0 1 

  Using Particle by Particle moves
  Walker moves without drift
  Total Sample Size   =4096
  Walker distribution on root = 0 1 
  Using Locality Approximation
===== Memory Usage after the buffer registration =====
Available memory on node 0, free + buffers : 82695 MB
Memory footprint by rank 0 on node 0       : 157 MB
==================================================
  Anonymous Buffer size per walker : 7584 Bytes.
MEMORY increase 0 MB VMC::resetRun
====================================================
  SimpleFixedNodeBranch::finalize after a VMC block
    QMC counter        = 21
    time step          = 0.15
    reference energy   = -86.5901
    reference variance = 1.41039
====================================================
  QMC Execution time = 5.6113e+00 secs 

=========================================================
  Start DMC
  File Root Cr.log.s022 append = no 
=========================================================
Using existing walkers 
  Resetting Properties of the walkers 1 x 13
  EstimatorManagerBase::add replace LocalEnergy estimator.
  Cannot make clones again. Use existing 1 clones
  Total number of walkers: 4.0960e+03
  Total weight: 4.0960e+03
  Creating WalkerController: target  number of walkers = 4096
  Using WalkerControlMPI for dynamic population control.
  START ALL OVER 
  WalkerControlBase parameters 
    maxCopy = 2
    Max Walkers per MPI rank 9
    Min Walkers per MPI rank 1
    Using non-blocking send/recv
  QMC counter      = 22
  time step        = 2.0000e-02
  effective time step = 2.0000e-02
  trial energy     = -8.6590e+01
  reference energy = -8.6590e+01
  Feedback = 1.0000e+00
  reference variance = 1.4104e+00
  target walkers = 4096
  branching cutoff scheme classic
  branch cutoff = 5.0000e+01 7.5000e+01
  Max and minimum walkers per node= 9 1
  QMC Status (BranchMode) = 0000001101
  Initial partition of walkers on a node: 0 4 
  Updates by particle-by-particle moves
  DMC moves are rejected when a node crossing is detected
  Using Non-local T-moves v0, M. Casula, PRB 74, 161102(R) (2006)
===== Memory Usage after the buffer registration =====
Available memory on node 0, free + buffers : 82694 MB
Memory footprint by rank 0 on node 0       : 157 MB
==================================================
SimpleFixedNodeBranch::checkParameters 
  Average Energy of a population  = -86.5746
  Energy Variance = 1.19272

  Fluctuating population
  Persistent walkers are killed after 1 MC sweeps
  BranchInterval = 1
  Steps per block = 50
  Number of blocks = 150

  DMC Engine Initialization = 3.5233e-02 secs 

 Warmup is completed after 100

  TauEff     = 1.8815e-02
 TauEff/Tau = 9.4077e-01
  Etrial     = -8.6599e+01
 Running average of energy = -8.6601e+01
                  Variance = 1.2538e+00
branch cutoff = 1.2538e+01 1.8806e+01
====================================================
  SimpleFixedNodeBranch::finalize after a DMC block
    QMC counter                   = 22
    time step                     = 0.02
    effective time step           = 0.0188157
    trial energy                  = -86.5957
    reference energy              = -86.5979
    reference variance            = 1.25376
    target walkers                = 4096
    branch cutoff                 = 12.5376 18.8064
    Max and minimum walkers per node= 9 1
    Feedback                      = 1
    QMC Status (BranchMode)       = 0000001111
====================================================
  QMC Execution time = 8.3000e+01 secs 
  Reusing DMC
BRANCH resetRun
 SimpleFixedNodeBranch::resetRun detected changes in <parameter>'s 
 BranchMode : 0000001111 0000001111
  WalkerControlBase parameters 
    maxCopy = 2
    Max Walkers per MPI rank 9
    Min Walkers per MPI rank 1
    Using non-blocking send/recv
 iParam (old):                  0                 1                22              4096                 9                 1                 1                 0
 iParam (new):                100                 1                22              4096                 9                 1                 1                 0
 vParam (old):   2.0000000000e-02  1.8815691669e-02 -8.6595663406e+01 -8.6597863090e+01 -8.6583830974e+01  1.8806406946e+01  1.2537604631e+01  1.5952010443e-01  1.2537604631e+00 -6.4091077069e+05  7.4010000000e+03  1.0000000000e+00  1.0000000000e+01  1.0000000000e+00  1.0000000000e+00  1.0000000000e+00  1.0000000000e+00
 vParam (new):   1.0000000000e-02  1.8815691669e-02 -8.6595663406e+01 -8.6597863090e+01 -8.6583830974e+01  1.8806406946e+01  1.2537604631e+01  1.5952010443e-01  1.2537604631e+00 -6.4091077069e+05  7.4010000000e+03  1.0000000000e+00  1.0000000000e+01  1.0000000000e+00  1.0000000000e+00  1.0000000000e+00  1.0000000000e+00

 Using branching cutoff scheme classic
SimpleFixedNodeBranch::checkParameters 
  Average Energy of a population  = -86.5855
  Energy Variance = 1.23911

  Using Non-local T-moves v0, M. Casula, PRB 74, 161102(R) (2006)
===== Memory Usage after the buffer registration =====
Available memory on node 0, free + buffers : 82662 MB
Memory footprint by rank 0 on node 0       : 161 MB
==================================================

=========================================================
  Start DMC
  File Root Cr.log.s023 append = no 
=========================================================
Using existing walkers 
  Resetting Properties of the walkers 1 x 13
  EstimatorManagerBase::add replace LocalEnergy estimator.
  Cannot make clones again. Use existing 1 clones
SimpleFixedNodeBranch::checkParameters 
  Average Energy of a population  = -86.5937
  Energy Variance = 1.29938

  Fluctuating population
  Persistent walkers are killed after 1 MC sweeps
  BranchInterval = 1
  Steps per block = 100
  Number of blocks = 200

  DMC Engine Initialization = 3.2210350037e-04 secs 

 Warmup is completed after 100

  TauEff     = 9.7470559389e-03
 TauEff/Tau = 9.7470559389e-01
  Etrial     = -8.6789336764e+01
 Running average of energy = -8.6589004681e+01
                  Variance = 1.2156419321e+00
branch cutoff = 1.2156419321e+01 1.8234628982e+01
====================================================
  SimpleFixedNodeBranch::finalize after a DMC block
    QMC counter                   = 23
    time step                     = 0.01
    effective time step           = 0.00974599
    trial energy                  = -86.5714
    reference energy              = -86.5929
    reference variance            = 1.21564
    target walkers                = 4096
    branch cutoff                 = 12.1564 18.2346
    Max and minimum walkers per node= 9 1
    Feedback                      = 1
    QMC Status (BranchMode)       = 0000001111
====================================================
  QMC Execution time = 2.2283e+02 secs 
  Reusing DMC
BRANCH resetRun
 SimpleFixedNodeBranch::resetRun detected changes in <parameter>'s 
 BranchMode : 0000001111 0000001111
  WalkerControlBase parameters 
    maxCopy = 2
    Max Walkers per MPI rank 9
    Min Walkers per MPI rank 1
    Using non-blocking send/recv
 iParam (old):                  0                 1                23              4096                 9                 1                 1                 0
 iParam (new):                200                 1                23              4096                 9                 1                 1                 0
 vParam (old):   1.0000000000e-02  9.7459916801e-03 -8.6571426257e+01 -8.6592895311e+01 -8.6587607643e+01  1.8234628982e+01  1.2156419321e+01  1.6452213001e-01  1.2156419321e+00 -1.7232852043e+06  1.9901000000e+04  1.0000000000e+00  1.0000000000e+01  1.0000000000e+00  1.0000000000e+00  1.0000000000e+00  1.0000000000e+00
 vParam (new):   5.0000000000e-03  9.7459916801e-03 -8.6571426257e+01 -8.6592895311e+01 -8.6587607643e+01  1.8234628982e+01  1.2156419321e+01  1.6452213001e-01  1.2156419321e+00 -1.7232852043e+06  1.9901000000e+04  1.0000000000e+00  1.0000000000e+01  1.0000000000e+00  1.0000000000e+00  1.0000000000e+00  1.0000000000e+00

 Using branching cutoff scheme classic
SimpleFixedNodeBranch::checkParameters 
  Average Energy of a population  = -86.5898
  Energy Variance = 1.07318

  Using Non-local T-moves v0, M. Casula, PRB 74, 161102(R) (2006)
===== Memory Usage after the buffer registration =====
Available memory on node 0, free + buffers : 82646 MB
Memory footprint by rank 0 on node 0       : 166 MB
==================================================

=========================================================
  Start DMC
  File Root Cr.log.s024 append = no 
=========================================================
Using existing walkers 
  Resetting Properties of the walkers 1 x 13
  EstimatorManagerBase::add replace LocalEnergy estimator.
  Cannot make clones again. Use existing 1 clones
SimpleFixedNodeBranch::checkParameters 
  Average Energy of a population  = -86.599
  Energy Variance = 1.09997

  Fluctuating population
  Persistent walkers are killed after 1 MC sweeps
  BranchInterval = 1
  Steps per block = 200
  Number of blocks = 250

  DMC Engine Initialization = 3.7312507629e-04 secs 

 Warmup is completed after 200

  TauEff     = 4.9472648715e-03
 TauEff/Tau = 9.8945297430e-01
  Etrial     = -8.6399168897e+01
 Running average of energy = -8.6582485494e+01
                  Variance = 1.1428285615e+00
branch cutoff = 1.1428285615e+01 1.7142428422e+01
====================================================
  SimpleFixedNodeBranch::finalize after a DMC block
    QMC counter                   = 24
    time step                     = 0.005
    effective time step           = 0.00494778
    trial energy                  = -86.5675
    reference energy              = -86.59
    reference variance            = 1.14283
    target walkers                = 4096
    branch cutoff                 = 11.4283 17.1424
    Max and minimum walkers per node= 9 1
    Feedback                      = 1
    QMC Status (BranchMode)       = 0000001111
====================================================
  QMC Execution time = 5.5977e+02 secs 
  Reusing DMC
BRANCH resetRun
 SimpleFixedNodeBranch::resetRun detected changes in <parameter>'s 
 BranchMode : 0000001111 0000001111
  WalkerControlBase parameters 
    maxCopy = 2
    Max Walkers per MPI rank 9
    Min Walkers per MPI rank 1
    Using non-blocking send/recv
 iParam (old):                  0                 1                24              4096                 9                 1                 1                 0
 iParam (new):                400                 1                24              4096                 9                 1                 1                 0
 vParam (old):   5.0000000000e-03  4.9477797762e-03 -8.6567523636e+01 -8.6589990944e+01 -8.6641498367e+01  1.7142428422e+01  1.1428285615e+01  1.7500437663e-01  1.1428285615e+00 -4.3122681905e+06  4.9801000000e+04  1.0000000000e+00  1.0000000000e+01  1.0000000000e+00  1.0000000000e+00  1.0000000000e+00  1.0000000000e+00
 vParam (new):   2.5000000000e-03  4.9477797762e-03 -8.6567523636e+01 -8.6589990944e+01 -8.6641498367e+01  1.7142428422e+01  1.1428285615e+01  1.7500437663e-01  1.1428285615e+00 -4.3122681905e+06  4.9801000000e+04  1.0000000000e+00  1.0000000000e+01  1.0000000000e+00  1.0000000000e+00  1.0000000000e+00  1.0000000000e+00

 Using branching cutoff scheme classic
SimpleFixedNodeBranch::checkParameters 
  Average Energy of a population  = -86.6389
  Energy Variance = 6.9929

  Using Non-local T-moves v0, M. Casula, PRB 74, 161102(R) (2006)
===== Memory Usage after the buffer registration =====
Available memory on node 0, free + buffers : 82619 MB
Memory footprint by rank 0 on node 0       : 173 MB
==================================================

=========================================================
  Start DMC
  File Root Cr.log.s025 append = no 
=========================================================
Using existing walkers 
  Resetting Properties of the walkers 1 x 13
  EstimatorManagerBase::add replace LocalEnergy estimator.
  Cannot make clones again. Use existing 1 clones
SimpleFixedNodeBranch::checkParameters 
  Average Energy of a population  = -86.6002
  Energy Variance = 1.53439

  Fluctuating population
  Persistent walkers are killed after 1 MC sweeps
  BranchInterval = 1
  Steps per block = 400
  Number of blocks = 300

  DMC Engine Initialization = 4.3797492981e-04 secs 

 Warmup is completed after 400

  TauEff     = 2.4894464378e-03
 TauEff/Tau = 9.9577857514e-01
  Etrial     = -8.7000699490e+01
 Running average of energy = -8.6585938449e+01
                  Variance = 1.1637339598e+00
branch cutoff = 1.1637339598e+01 1.7456009396e+01
====================================================
  SimpleFixedNodeBranch::finalize after a DMC block
    QMC counter                   = 25
    time step                     = 0.0025
    effective time step           = 0.00248956
    trial energy                  = -86.599
    reference energy              = -86.5888
    reference variance            = 1.16373
    target walkers                = 4096
    branch cutoff                 = 11.6373 17.456
    Max and minimum walkers per node= 9 1
    Feedback                      = 1
    QMC Status (BranchMode)       = 0000001111
====================================================
  QMC Execution time = 1.3478e+03 secs 
  Total Execution time = 2.3751e+03 secs

=========================================================
  A new xml input file : Cr.log.s025.cont.xml
TACC:  Shutdown complete. Exiting. 
