TACC:  Starting up job 2693006 
TACC:  Starting parallel tasks... 
  Input file(s): S.log.qmc.in-wfj.xml 

=====================================================
                    QMCPACK 3.5.0 

       (c) Copyright 2003-  QMCPACK developers

                    Please cite:
 J. Kim et al. J. Phys. Cond. Mat. 30 195901 (2018)
      https://doi.org/10.1088/1361-648X/aab9c3

  Git branch: develop
  Last git commit: ca320f40410f5ef17c38db08d5c54848ef64bfe1
  Last git commit date: Tue Dec 18 15:37:17 2018 +0800
  Last git commit subject: Merge pull request #764 from Paul-St-Young/dat-h5
=====================================================
  Global options 

  MPI Nodes             = 1024
  MPI Nodes per group   = 1024
  MPI Group ID          = 0
  OMP 1st level threads = 1
  OMP nested threading disabled or only 1 thread on the 2nd level

  Precision used in this calculation, see definitions in the manual:
  Base precision      = double
  Full precision      = double

  Structure-of-arrays (SoA) optimization enabled

  Input XML = S.log.qmc.in-wfj.xml

  Project = S.log
  date    = 2018-12-26 17:49:59 CST
  host    = c456-054.stampede2.tacc.utexas.edu

 Random Number
 -------------
  Offset for the random number seeds based on time: 935

  Range of prime numbers to use as seeds over processors and threads = 7351-17011


 Particle Set 
 ------------
  Name: ion0
  All the species have the same mass 1
  Particle set size: 1

 Particle Set 
 ------------
  Name: e
  All the species have the same mass 1
  Particle set size: 6

 Wavefunction setup: 
 ------------------- 
  Name: psi0
  LCAO: SoaAtomicBasisSet<MultiQuintic,0>

  Distance table for similar particles (A-A):
    source/target: e
    Using structure-of-arrays (SoA) data layout
    Distance computations use open boundary conditions in 3D.


  Distance table for dissimilar particles (A-B):
    source: ion0  target: e
    Using structure-of-arrays (SoA) data layout
    Distance computations use open boundary conditions in 3D.

Reading BasisSet from HDF5 file:S.log.orbs.h5
<input node="atomicBasisSet" name="Gaussian" expandYlm="gaussian" angular="cartesian" elementType="S" normalized="no" type="Numerical" expM="0" />
  AO BasisSet for S
   Angular momentum expanded in cartesian functions x^lx y^ly z^lz according to Gamess
   Grid is created by the input paremters in h5
    Using log grid ri = 1e-06 rf = 100 npts = 1001
   R(n,l,m,s) 0 0 0 0
   R(n,l,m,s) 1 0 0 0
   R(n,l,m,s) 2 0 0 0
   R(n,l,m,s) 3 1 0 0
   R(n,l,m,s) 4 1 0 0
   R(n,l,m,s) 5 1 0 0
   R(n,l,m,s) 6 2 0 0
   R(n,l,m,s) 7 2 0 0
   R(n,l,m,s) 8 3 0 0
Expanding Ylm (angular function) according to Gamess using cartesian gaussians
Adding 1 cartesian gaussian orbitals for l= 0
Adding 1 cartesian gaussian orbitals for l= 0
Adding 1 cartesian gaussian orbitals for l= 0
Adding 3 cartesian gaussian orbitals for l= 1
Adding 3 cartesian gaussian orbitals for l= 1
Adding 3 cartesian gaussian orbitals for l= 1
Adding 6 cartesian gaussian orbitals for l= 2
Adding 6 cartesian gaussian orbitals for l= 2
Adding 10 cartesian gaussian orbitals for l= 3
   Maximum Angular Momentum  = 3
   Number of Radial functors = 9
   Basis size                = 34

  Created SPOSet builder named 'LCAOBSet' of type molecularorbital
Reuse SPOSetBuilder "LCAOBSet" type MolecularOrbital
  Building SPOSet '' with '' basis set.
Reuse SPOSetBuilder "LCAOBSet" type MolecularOrbital
  Building SPOSet '' with '' basis set.
  Creating a determinant updet group=0 sposet=updet
  Reusing a SPO set updet
Using DiracDeterminant 
Using rank-1 Sherman-Morrison Fahy update

  Creating a determinant downdet group=1 sposet=downdet
  Reusing a SPO set downdet
Using DiracDeterminant 
Using rank-1 Sherman-Morrison Fahy update

  FermionWF = SlaterDet
  RadialJastrowBuilder adds a functor with cusp = -0.25
 size = 10 parameters 
 cusp = -0.25
 rcut = 9.5
Parameter     Name      Value
uu_0 0.503054 1 1  ON 0
uu_1 0.288095 1 1  ON 1
uu_2 0.133792 1 1  ON 2
uu_3 0.0246942 1 1  ON 3
uu_4 -0.0564693 1 1  ON 4
uu_5 -0.114248 1 1  ON 5
uu_6 -0.151919 1 1  ON 6
uu_7 -0.170047 1 1  ON 7
uu_8 -0.163162 1 1  ON 8
uu_9 -0.131576 1 1  ON 9
  RadialJastrowBuilder adds a functor with cusp = -0.5
 size = 10 parameters 
 cusp = -0.5
 rcut = 9.5
Parameter     Name      Value
ud_0 0.800091 1 1  ON 0
ud_1 0.447146 1 1  ON 1
ud_2 0.223051 1 1  ON 2
ud_3 0.0849301 1 1  ON 3
ud_4 -0.0117369 1 1  ON 4
ud_5 -0.0823978 1 1  ON 5
ud_6 -0.13356 1 1  ON 6
ud_7 -0.166545 1 1  ON 7
ud_8 -0.174353 1 1  ON 8
ud_9 -0.161211 1 1  ON 9
 size = 10 parameters 
 cusp = 0
 rcut = 9.5
Parameter     Name      Value
eS_0 -1.04202 1 1  ON 0
eS_1 -0.87511 1 1  ON 1
eS_2 -0.525223 1 1  ON 2
eS_3 -0.135424 1 1  ON 3
eS_4 0.19333 1 1  ON 4
eS_5 0.446676 1 1  ON 5
eS_6 0.603934 1 1  ON 6
eS_7 0.659829 1 1  ON 7
eS_8 0.536187 1 1  ON 8
eS_9 0.163473 1 1  ON 9
Expected 26 parameters, but found 0 in PolynomialFunctor3D.
Parameter     Name      Value
uuS_0 0 1 1  ON 0
uuS_1 0 1 1  ON 1
uuS_2 0 1 1  ON 2
uuS_3 0 1 1  ON 3
uuS_4 0 1 1  ON 4
uuS_5 0 1 1  ON 5
uuS_6 0 1 1  ON 6
uuS_7 0 1 1  ON 7
uuS_8 0 1 1  ON 8
uuS_9 0 1 1  ON 9
uuS_10 0 1 1  ON 10
uuS_11 0 1 1  ON 11
uuS_12 0 1 1  ON 12
uuS_13 0 1 1  ON 13
uuS_14 0 1 1  ON 14
uuS_15 0 1 1  ON 15
uuS_16 0 1 1  ON 16
uuS_17 0 1 1  ON 17
uuS_18 0 1 1  ON 18
uuS_19 0 1 1  ON 19
uuS_20 0 1 1  ON 20
uuS_21 0 1 1  ON 21
uuS_22 0 1 1  ON 22
uuS_23 0 1 1  ON 23
uuS_24 0 1 1  ON 24
uuS_25 0 1 1  ON 25
Expected 26 parameters, but found 0 in PolynomialFunctor3D.
Parameter     Name      Value
udS_0 0 1 1  ON 0
udS_1 0 1 1  ON 1
udS_2 0 1 1  ON 2
udS_3 0 1 1  ON 3
udS_4 0 1 1  ON 4
udS_5 0 1 1  ON 5
udS_6 0 1 1  ON 6
udS_7 0 1 1  ON 7
udS_8 0 1 1  ON 8
udS_9 0 1 1  ON 9
udS_10 0 1 1  ON 10
udS_11 0 1 1  ON 11
udS_12 0 1 1  ON 12
udS_13 0 1 1  ON 13
udS_14 0 1 1  ON 14
udS_15 0 1 1  ON 15
udS_16 0 1 1  ON 16
udS_17 0 1 1  ON 17
udS_18 0 1 1  ON 18
udS_19 0 1 1  ON 19
udS_20 0 1 1  ON 20
udS_21 0 1 1  ON 21
udS_22 0 1 1  ON 22
udS_23 0 1 1  ON 23
udS_24 0 1 1  ON 24
udS_25 0 1 1  ON 25
  QMCHamiltonian::addOperator Kinetic to H, physical Hamiltonian 
  QMCHamiltonian::addOperator ElecElec to H, physical Hamiltonian 
QMCHamiltonian::addOperatorType added type coulomb named ElecElec
  CoulombAA for ion0 is not created.  Number of particles == 1 and nonPeriodic

  ECPotential builder for pseudopotential 

  Adding pseudopotential for S
   Linear grid  ri=0 rf=10 npts = 10001
    ECPComponentBuilder::buildSemiLocalAndLocal 
    Assuming Hartree unit
   Number of angular momentum channels 3
   Maximum angular momentum channel 2
   Creating a Linear Grid Rmax=2.195
  Using global grid with delta = 0.001
   Making L=2 a local potential with a radial cutoff of 9.999
    Non-local pseudopotential parameters
    Maximum angular mementum = 1
    Number of non-local channels = 2
       l(0)=0
       l(1)=1
    Cutoff radius = 2.195
    Spherical grids and weights: 
                        1                 0                 0       0.08333333333
                       -1   1.224646799e-16                 0       0.08333333333
             0.4472135955       0.894427191                 0       0.08333333333
            -0.4472135955      0.7236067977      0.5257311121       0.08333333333
             0.4472135955      0.2763932023      0.8506508084       0.08333333333
            -0.4472135955     -0.2763932023      0.8506508084       0.08333333333
             0.4472135955     -0.7236067977      0.5257311121       0.08333333333
            -0.4472135955      -0.894427191   1.095357397e-16       0.08333333333
             0.4472135955     -0.7236067977     -0.5257311121       0.08333333333
            -0.4472135955     -0.2763932023     -0.8506508084       0.08333333333
             0.4472135955      0.2763932023     -0.8506508084       0.08333333333
            -0.4472135955      0.7236067977     -0.5257311121       0.08333333333
    Maximum cutoff radius 2.195
  QMCHamiltonian::addOperator LocalECP to H, physical Hamiltonian 

  Using NonLocalECP potential 
    Maximum grid on a sphere for NonLocalECPotential: 12
  QMCHamiltonian::addOperator NonLocalECP to H, physical Hamiltonian 
QMCHamiltonian::addOperatorType added type pseudo named PseudoPot

  QMCHamiltonian::add2WalkerProperty added
    4 to P::PropertyList 
    0 to P::Collectables 
    starting Index of the observables in P::PropertyList = 9
ParticleSetPool::randomize 
<init source="ion0" target="e">
</init>
  Initialization Execution time = 0.6689 secs
=========================================================
 Summary of QMC systems 
=========================================================
ParticleSetPool has: 

  ParticleSet e : 0 4 6 

    6

    u -1.2281702032e-01  2.9612586480e+00 -5.9858841816e-01
    u  1.4354734346e+00 -7.1896286652e-01 -6.4450765509e-01
    u  4.7122552850e-02 -1.3356764141e+00  6.5562203520e-01
    u -2.5797321759e-01 -1.0962238939e+00 -2.2892986308e-01
    d  9.1623348117e-01  2.6383468525e+00 -9.6691671594e-04
    d -1.7724988088e+00 -1.8444432400e+00 -1.7417826119e+00

  ParticleSet ion0 : 0 1 

    1

    S  0.0000000000e+00  0.0000000000e+00  0.0000000000e+00

  Hamiltonian h0
  Kinetic         Kinetic energy
  ElecElec        CoulombAA source/target e

  LocalECP        LocalECPotential: ion0
  NonLocalECP     NonLocalECPotential: ion0

=========================================================
  Start VMC
  File Root S.log.s000 append = no 
=========================================================
  Adding 1 walkers to 0 existing sets
  Total number of walkers: 1.0240000000e+03
  Total weight: 1.0240000000e+03
  Resetting Properties of the walkers 1 x 13

<vmc function="put">
  qmc_counter=0  my_counter=0
  time step      = 1.5000000000e-01
  blocks         = 200
  steps          = 1
  substeps       = 5
  current        = 0
  target samples = 1.0240000000e+03
  walkers/mpi    = 1

  stepsbetweensamples = 200
<parameter name="blocks" condition="int">200</parameter>
<parameter name="blocks_between_recompute" condition="int">0</parameter>
<parameter name="check_properties" condition="int">100</parameter>
<parameter name="checkproperties" condition="int">100</parameter>
<parameter name="current" condition="int">0</parameter>
<parameter name="dmcwalkersperthread" condition="real">1.0000000000e+00</parameter>
<parameter name="maxcpusecs" condition="real">3.6000000000e+05</parameter>
<parameter name="record_configs" condition="int">0</parameter>
<parameter name="record_walkers" condition="int">200</parameter>
<parameter name="recordconfigs" condition="int">0</parameter>
<parameter name="recordwalkers" condition="int">200</parameter>
<parameter name="rewind" condition="int">0</parameter>
<parameter name="samples" condition="real">1.0240000000e+03</parameter>
<parameter name="samplesperthread" condition="real">1.0000000000e+00</parameter>
<parameter name="steps" condition="int">1</parameter>
<parameter name="stepsbetweensamples" condition="int">200</parameter>
<parameter name="store_configs" condition="int">0</parameter>
<parameter name="storeconfigs" condition="int">0</parameter>
<parameter name="sub_steps" condition="int">5</parameter>
<parameter name="substeps" condition="int">5</parameter>
<parameter name="tau" condition="au">1.5000000000e-01</parameter>
<parameter name="time_step" condition="au">1.5000000000e-01</parameter>
<parameter name="timestep" condition="au">1.5000000000e-01</parameter>
<parameter name="use_drift" condition="string">no</parameter>
<parameter name="usedrift" condition="string">no</parameter>
<parameter name="walkers" condition="int">1</parameter>
<parameter name="warmup_steps" condition="int">100</parameter>
<parameter name="warmupsteps" condition="int">100</parameter>
  DumpConfig==false Nothing (configurations, state) will be saved.
  Walker Samples are dumped every 200 steps.
</vmc>
  Initial partition of walkers 0 1 

  Using Particle by Particle moves
  Walker moves without drift
  Total Sample Size   =1024
  Walker distribution on root = 0 1 
  Using Locality Approximation
===== Memory Usage after the buffer registration =====
Available memory on node 0, free + buffers : 85335 MB
Memory footprint by rank 0 on node 0       : 73 MB
==================================================
  Anonymous Buffer size per walker : 2336 Bytes.
MEMORY increase 0 MB VMC::resetRun
====================================================
  SimpleFixedNodeBranch::finalize after a VMC block
    QMC counter        = 0
    time step          = 0.15
    reference energy   = -10.0925
    reference variance = 0.120153
====================================================
  QMC Execution time = 1.3987e+00 secs 
Loop execution max-interations = 20

=========================================================
  Start QMCFixedSampleLinearOptimize
  File Root S.log.s001 append = no 
=========================================================
  Skip QMCDriver::putQMCInfo 
  Resetting Properties of the walkers 1 x 13

=========================================================
  Start VMC
  File Root S.log.s001 append = no 
=========================================================
  Using the current 1 walkers.
  Total number of walkers: 1.0240e+03
  Total weight: 1.0240e+03
  Resetting Properties of the walkers 1 x 13

<vmc function="put">
  qmc_counter=0  my_counter=0
  time step      = 1.5000e-01
  blocks         = 300
  steps          = 2
  substeps       = 5
  current        = 0
  target samples = 5.1200e+05
  walkers/mpi    = 1

  stepsbetweensamples = 1
<parameter name="blocks" condition="int">300</parameter>
<parameter name="blocks_between_recompute" condition="int">0</parameter>
<parameter name="check_properties" condition="int">100</parameter>
<parameter name="checkproperties" condition="int">100</parameter>
<parameter name="current" condition="int">0</parameter>
<parameter name="dmcwalkersperthread" condition="real">5.0000e+02</parameter>
<parameter name="maxcpusecs" condition="real">3.6000e+05</parameter>
<parameter name="record_configs" condition="int">0</parameter>
<parameter name="record_walkers" condition="int">1</parameter>
<parameter name="recordconfigs" condition="int">0</parameter>
<parameter name="recordwalkers" condition="int">1</parameter>
<parameter name="rewind" condition="int">0</parameter>
<parameter name="samples" condition="real">5.1200e+05</parameter>
<parameter name="samplesperthread" condition="real">5.0000e+02</parameter>
<parameter name="steps" condition="int">2</parameter>
<parameter name="stepsbetweensamples" condition="int">1</parameter>
<parameter name="store_configs" condition="int">0</parameter>
<parameter name="storeconfigs" condition="int">0</parameter>
<parameter name="sub_steps" condition="int">5</parameter>
<parameter name="substeps" condition="int">5</parameter>
<parameter name="tau" condition="au">1.5000e-01</parameter>
<parameter name="time_step" condition="au">1.5000e-01</parameter>
<parameter name="timestep" condition="au">1.5000e-01</parameter>
<parameter name="use_drift" condition="string">no</parameter>
<parameter name="usedrift" condition="string">no</parameter>
<parameter name="walkers" condition="int">1</parameter>
<parameter name="warmup_steps" condition="int">0</parameter>
<parameter name="warmupsteps" condition="int">0</parameter>
  DumpConfig==false Nothing (configurations, state) will be saved.
  Walker Samples are dumped every 1 steps.
</vmc>
    Restarting, cummulative properties:
      energy     = -1.0093e+01
      variance   = 0.0000e+00
      r2accepted = 1.0000e-10
      r2proposed = 1.0000e-10
 Using QMCCostFunction::QMCCostFunction
  EstimatorManagerBase::add replace LocalEnergy estimator.
<optimization-report>
<vmc stage="main" blocks="300">
  Cannot make clones again. Use existing 1 clones
  Initial partition of walkers 0 1 

  Using Particle by Particle moves
  Walker moves without drift
  Total Sample Size   =512000
  Walker distribution on root = 0 1 
  Using Locality Approximation
===== Memory Usage after the buffer registration =====
Available memory on node 0, free + buffers : 85308 MB
Memory footprint by rank 0 on node 0       : 74 MB
==================================================
  Anonymous Buffer size per walker : 2336 Bytes.
MEMORY increase 0 MB VMC::resetRun
====================================================
  SimpleFixedNodeBranch::finalize after a VMC block
    QMC counter        = 1
    time step          = 0.15
    reference energy   = -10.0814
    reference variance = 0.0799285
====================================================
  Execution time = 3.1221e+00
</vmc>
<opt stage="setup">
  <log>
   Reading configurations from h5FileRoot S.log.s001
  QMCCostFunction is created with 1 threads.
  Using Nonlocal PP in Opt: NonLocalECP
   Number of samples loaded to each thread : 500 
  VMC Eavg = -1.0075e+01
  VMC Evar = 9.1319e-02
  Total weights = 5.1200e+05
  Execution time = 1.1826e+00
  </log>
</opt>
<opt stage="main" walkers="512000">
  <log>

*****************************************
Building overlap and Hamiltonian matrices
*****************************************

Among totally 82 optimized parameters, largest LM parameter change : 4.5816e-02 at parameter 22

******************************************************************************
Init Cost =  -9.5671e+00    New Cost =  -9.5772e+00  Delta Cost =  -1.0045e-02
******************************************************************************

The new set of parameters is valid. Updating the trial wave function!

*****************************************************************************
Applying the update for shift_i =   1.0000e-02     and shift_s =   2.5000e-01
*****************************************************************************
  Execution time = 5.4741e+00
  </log>
  <optVariables href="S.log.s001.opt.xml">
uu_0 4.7864e-01 1 1  ON 0
uu_1 2.7433e-01 1 1  ON 1
uu_2 1.3393e-01 1 1  ON 2
uu_3 2.6469e-02 1 1  ON 3
uu_4 -4.5877e-02 1 1  ON 4
uu_5 -1.0190e-01 1 1  ON 5
uu_6 -1.4119e-01 1 1  ON 6
uu_7 -1.6181e-01 1 1  ON 7
uu_8 -1.5820e-01 1 1  ON 8
uu_9 -1.2761e-01 1 1  ON 9
ud_0 7.9855e-01 1 1  ON 10
ud_1 4.4978e-01 1 1  ON 11
ud_2 2.2973e-01 1 1  ON 12
ud_3 8.4059e-02 1 1  ON 13
ud_4 -5.2570e-03 1 1  ON 14
ud_5 -7.3214e-02 1 1  ON 15
ud_6 -1.2317e-01 1 1  ON 16
ud_7 -1.6157e-01 1 1  ON 17
ud_8 -1.7246e-01 1 1  ON 18
ud_9 -1.5902e-01 1 1  ON 19
eS_0 -1.0306e+00 1 1  ON 20
eS_1 -8.7228e-01 1 1  ON 21
eS_2 -5.7104e-01 1 1  ON 22
eS_3 -1.4857e-01 1 1  ON 23
eS_4 2.2268e-01 1 1  ON 24
eS_5 4.3528e-01 1 1  ON 25
eS_6 5.9858e-01 1 1  ON 26
eS_7 6.6292e-01 1 1  ON 27
eS_8 5.5010e-01 1 1  ON 28
eS_9 1.7647e-01 1 1  ON 29
uuS_0 -2.0216e-05 1 1  ON 30
uuS_1 3.3797e-05 1 1  ON 31
uuS_2 -5.2921e-06 1 1  ON 32
uuS_3 4.1423e-05 1 1  ON 33
uuS_4 1.0211e-05 1 1  ON 34
uuS_5 -2.0634e-06 1 1  ON 35
uuS_6 7.4583e-05 1 1  ON 36
uuS_7 2.1282e-06 1 1  ON 37
uuS_8 -6.8687e-05 1 1  ON 38
uuS_9 -3.4967e-05 1 1  ON 39
uuS_10 1.7858e-05 1 1  ON 40
uuS_11 2.9031e-05 1 1  ON 41
uuS_12 2.2192e-05 1 1  ON 42
uuS_13 -8.0779e-05 1 1  ON 43
uuS_14 -2.4690e-05 1 1  ON 44
uuS_15 2.2197e-07 1 1  ON 45
uuS_16 8.1840e-05 1 1  ON 46
uuS_17 -1.0040e-04 1 1  ON 47
uuS_18 3.6315e-07 1 1  ON 48
uuS_19 -8.1682e-06 1 1  ON 49
uuS_20 2.0550e-05 1 1  ON 50
uuS_21 4.8744e-06 1 1  ON 51
uuS_22 6.6730e-08 1 1  ON 52
uuS_23 -5.9483e-06 1 1  ON 53
uuS_24 -4.7540e-07 1 1  ON 54
uuS_25 3.9376e-08 1 1  ON 55
udS_0 -2.4850e-05 1 1  ON 56
udS_1 1.0788e-04 1 1  ON 57
udS_2 4.2807e-05 1 1  ON 58
udS_3 5.4776e-05 1 1  ON 59
udS_4 8.4905e-06 1 1  ON 60
udS_5 -6.0327e-06 1 1  ON 61
udS_6 2.4648e-04 1 1  ON 62
udS_7 -1.7713e-05 1 1  ON 63
udS_8 -5.5886e-05 1 1  ON 64
udS_9 -1.8316e-04 1 1  ON 65
udS_10 2.2950e-05 1 1  ON 66
udS_11 1.6001e-05 1 1  ON 67
udS_12 2.6595e-05 1 1  ON 68
udS_13 -6.0644e-05 1 1  ON 69
udS_14 -3.0967e-05 1 1  ON 70
udS_15 3.2243e-07 1 1  ON 71
udS_16 2.5061e-04 1 1  ON 72
udS_17 -1.2123e-04 1 1  ON 73
udS_18 -4.9758e-06 1 1  ON 74
udS_19 -1.0789e-05 1 1  ON 75
udS_20 -1.6836e-05 1 1  ON 76
udS_21 1.1429e-05 1 1  ON 77
udS_22 -4.0583e-07 1 1  ON 78
udS_23 4.3932e-06 1 1  ON 79
udS_24 -2.5781e-06 1 1  ON 80
udS_25 3.1373e-07 1 1  ON 81
  </optVariables>
   Restore the number of walkers to 1, removing 0 walkers.
</opt>
</optimization-report>
  QMC Execution time = 5.4883e+00 secs 
  Reusing QMCFixedSampleLinearOptimize
 Using QMCCostFunction::QMCCostFunction

=========================================================
  Start QMCFixedSampleLinearOptimize
  File Root S.log.s002 append = no 
=========================================================
  Skip QMCDriver::putQMCInfo 
  Resetting Properties of the walkers 1 x 13

=========================================================
  Start VMC
  File Root S.log.s002 append = no 
=========================================================
Using existing walkers 
  Resetting Properties of the walkers 1 x 13

<vmc function="put">
  qmc_counter=1  my_counter=1
  time step      = 1.5000e-01
  blocks         = 300
  steps          = 2
  substeps       = 5
  current        = 0
  target samples = 5.1200e+05
  walkers/mpi    = 1

  stepsbetweensamples = 1
<parameter name="blocks" condition="int">300</parameter>
<parameter name="blocks_between_recompute" condition="int">0</parameter>
<parameter name="check_properties" condition="int">100</parameter>
<parameter name="checkproperties" condition="int">100</parameter>
<parameter name="current" condition="int">0</parameter>
<parameter name="dmcwalkersperthread" condition="real">5.0000e+02</parameter>
<parameter name="maxcpusecs" condition="real">3.6000e+05</parameter>
<parameter name="record_configs" condition="int">0</parameter>
<parameter name="record_walkers" condition="int">1</parameter>
<parameter name="recordconfigs" condition="int">0</parameter>
<parameter name="recordwalkers" condition="int">1</parameter>
<parameter name="rewind" condition="int">0</parameter>
<parameter name="samples" condition="real">5.1200e+05</parameter>
<parameter name="samplesperthread" condition="real">5.0000e+02</parameter>
<parameter name="steps" condition="int">2</parameter>
<parameter name="stepsbetweensamples" condition="int">1</parameter>
<parameter name="store_configs" condition="int">0</parameter>
<parameter name="storeconfigs" condition="int">0</parameter>
<parameter name="sub_steps" condition="int">5</parameter>
<parameter name="substeps" condition="int">5</parameter>
<parameter name="tau" condition="au">1.5000e-01</parameter>
<parameter name="time_step" condition="au">1.5000e-01</parameter>
<parameter name="timestep" condition="au">1.5000e-01</parameter>
<parameter name="use_drift" condition="string">no</parameter>
<parameter name="usedrift" condition="string">no</parameter>
<parameter name="walkers" condition="int">1</parameter>
<parameter name="warmup_steps" condition="int">0</parameter>
<parameter name="warmupsteps" condition="int">0</parameter>
  DumpConfig==false Nothing (configurations, state) will be saved.
  Walker Samples are dumped every 1 steps.
</vmc>
  EstimatorManagerBase::add replace LocalEnergy estimator.
  EstimatorManagerBase::add replace LocalEnergy estimator.
<optimization-report>
<vmc stage="main" blocks="300">
  Cannot make clones again. Use existing 1 clones
  Initial partition of walkers 0 1 
  Using Particle by Particle moves
  Walker moves without drift
  Total Sample Size   =512000
  Walker distribution on root = 0 1 
  Using Locality Approximation
===== Memory Usage after the buffer registration =====
Available memory on node 0, free + buffers : 84198 MB
Memory footprint by rank 0 on node 0       : 94 MB
==================================================
====================================================
  SimpleFixedNodeBranch::finalize after a VMC block
    QMC counter        = 2
    time step          = 0.15
    reference energy   = -10.0782
    reference variance = 0.0480413
====================================================
  Execution time = 3.1267e+00
</vmc>
<opt stage="setup">
  <log>
   Reading configurations from h5FileRoot S.log.s002
  QMCCostFunction is created with 1 threads.
  Using Nonlocal PP in Opt: NonLocalECP
   Number of samples loaded to each thread : 500 
  VMC Eavg = -1.0084e+01
  VMC Evar = 4.8690e-02
  Total weights = 5.1200e+05
  Execution time = 1.1665e+00
  </log>
</opt>
<opt stage="main" walkers="512000">
  <log>

*****************************************
Building overlap and Hamiltonian matrices
*****************************************

Among totally 82 optimized parameters, largest LM parameter change : 3.2104e-02 at parameter 22

******************************************************************************
Init Cost =  -9.5772e+00    New Cost =  -9.5789e+00  Delta Cost =  -1.6484e-03
******************************************************************************

The new set of parameters is valid. Updating the trial wave function!

*****************************************************************************
Applying the update for shift_i =   1.0000e-02     and shift_s =   6.2500e-02
*****************************************************************************
  Execution time = 5.3815e+00
  </log>
  <optVariables href="S.log.s002.opt.xml">
uu_0 4.6085e-01 1 1  ON 0
uu_1 2.6273e-01 1 1  ON 1
uu_2 1.2863e-01 1 1  ON 2
uu_3 2.6999e-02 1 1  ON 3
uu_4 -3.8062e-02 1 1  ON 4
uu_5 -9.2256e-02 1 1  ON 5
uu_6 -1.3220e-01 1 1  ON 6
uu_7 -1.5273e-01 1 1  ON 7
uu_8 -1.5144e-01 1 1  ON 8
uu_9 -1.2447e-01 1 1  ON 9
ud_0 8.0273e-01 1 1  ON 10
ud_1 4.5513e-01 1 1  ON 11
ud_2 2.3507e-01 1 1  ON 12
ud_3 8.8091e-02 1 1  ON 13
ud_4 1.4067e-03 1 1  ON 14
ud_5 -6.6819e-02 1 1  ON 15
ud_6 -1.1751e-01 1 1  ON 16
ud_7 -1.5734e-01 1 1  ON 17
ud_8 -1.6977e-01 1 1  ON 18
ud_9 -1.5843e-01 1 1  ON 19
eS_0 -1.0184e+00 1 1  ON 20
eS_1 -8.7843e-01 1 1  ON 21
eS_2 -6.0314e-01 1 1  ON 22
eS_3 -1.6357e-01 1 1  ON 23
eS_4 2.4442e-01 1 1  ON 24
eS_5 4.2981e-01 1 1  ON 25
eS_6 5.9393e-01 1 1  ON 26
eS_7 6.6414e-01 1 1  ON 27
eS_8 5.6015e-01 1 1  ON 28
eS_9 1.9171e-01 1 1  ON 29
uuS_0 -3.2107e-05 1 1  ON 30
uuS_1 5.3695e-05 1 1  ON 31
uuS_2 7.1117e-06 1 1  ON 32
uuS_3 6.3550e-05 1 1  ON 33
uuS_4 1.2463e-05 1 1  ON 34
uuS_5 -1.6775e-06 1 1  ON 35
uuS_6 1.2864e-04 1 1  ON 36
uuS_7 1.1877e-05 1 1  ON 37
uuS_8 -8.7895e-05 1 1  ON 38
uuS_9 -6.9404e-05 1 1  ON 39
uuS_10 2.8880e-05 1 1  ON 40
uuS_11 2.3075e-05 1 1  ON 41
uuS_12 3.0445e-05 1 1  ON 42
uuS_13 -1.1995e-04 1 1  ON 43
uuS_14 -3.4519e-05 1 1  ON 44
uuS_15 3.5666e-07 1 1  ON 45
uuS_16 1.4849e-04 1 1  ON 46
uuS_17 -1.6281e-04 1 1  ON 47
uuS_18 1.6402e-05 1 1  ON 48
uuS_19 -1.2524e-05 1 1  ON 49
uuS_20 2.7740e-05 1 1  ON 50
uuS_21 5.2373e-06 1 1  ON 51
uuS_22 2.8548e-07 1 1  ON 52
uuS_23 -8.7230e-06 1 1  ON 53
uuS_24 -3.9678e-07 1 1  ON 54
uuS_25 9.4757e-09 1 1  ON 55
udS_0 -4.3137e-05 1 1  ON 56
udS_1 1.2878e-04 1 1  ON 57
udS_2 6.4708e-05 1 1  ON 58
udS_3 9.4401e-05 1 1  ON 59
udS_4 1.3706e-05 1 1  ON 60
udS_5 -5.7262e-06 1 1  ON 61
udS_6 3.2091e-04 1 1  ON 62
udS_7 1.4003e-05 1 1  ON 63
udS_8 -8.0510e-05 1 1  ON 64
udS_9 -2.4102e-04 1 1  ON 65
udS_10 4.5218e-05 1 1  ON 66
udS_11 -2.9155e-06 1 1  ON 67
udS_12 4.0571e-05 1 1  ON 68
udS_13 -1.1605e-04 1 1  ON 69
udS_14 -4.5070e-05 1 1  ON 70
udS_15 3.0127e-07 1 1  ON 71
udS_16 3.5660e-04 1 1  ON 72
udS_17 -2.0970e-04 1 1  ON 73
udS_18 1.8206e-05 1 1  ON 74
udS_19 -1.8604e-05 1 1  ON 75
udS_20 -1.0051e-05 1 1  ON 76
udS_21 1.3154e-05 1 1  ON 77
udS_22 -5.6825e-08 1 1  ON 78
udS_23 1.2776e-06 1 1  ON 79
udS_24 -2.8785e-06 1 1  ON 80
udS_25 3.1807e-07 1 1  ON 81
  </optVariables>
   Restore the number of walkers to 1, removing 0 walkers.
</opt>
</optimization-report>
  QMC Execution time = 5.3946e+00 secs 
  Reusing QMCFixedSampleLinearOptimize
 Using QMCCostFunction::QMCCostFunction

=========================================================
  Start QMCFixedSampleLinearOptimize
  File Root S.log.s003 append = no 
=========================================================
  Skip QMCDriver::putQMCInfo 
  Resetting Properties of the walkers 1 x 13

=========================================================
  Start VMC
  File Root S.log.s003 append = no 
=========================================================
Using existing walkers 
  Resetting Properties of the walkers 1 x 13

<vmc function="put">
  qmc_counter=2  my_counter=2
  time step      = 1.5000e-01
  blocks         = 300
  steps          = 2
  substeps       = 5
  current        = 0
  target samples = 5.1200e+05
  walkers/mpi    = 1

  stepsbetweensamples = 1
<parameter name="blocks" condition="int">300</parameter>
<parameter name="blocks_between_recompute" condition="int">0</parameter>
<parameter name="check_properties" condition="int">100</parameter>
<parameter name="checkproperties" condition="int">100</parameter>
<parameter name="current" condition="int">0</parameter>
<parameter name="dmcwalkersperthread" condition="real">5.0000e+02</parameter>
<parameter name="maxcpusecs" condition="real">3.6000e+05</parameter>
<parameter name="record_configs" condition="int">0</parameter>
<parameter name="record_walkers" condition="int">1</parameter>
<parameter name="recordconfigs" condition="int">0</parameter>
<parameter name="recordwalkers" condition="int">1</parameter>
<parameter name="rewind" condition="int">0</parameter>
<parameter name="samples" condition="real">5.1200e+05</parameter>
<parameter name="samplesperthread" condition="real">5.0000e+02</parameter>
<parameter name="steps" condition="int">2</parameter>
<parameter name="stepsbetweensamples" condition="int">1</parameter>
<parameter name="store_configs" condition="int">0</parameter>
<parameter name="storeconfigs" condition="int">0</parameter>
<parameter name="sub_steps" condition="int">5</parameter>
<parameter name="substeps" condition="int">5</parameter>
<parameter name="tau" condition="au">1.5000e-01</parameter>
<parameter name="time_step" condition="au">1.5000e-01</parameter>
<parameter name="timestep" condition="au">1.5000e-01</parameter>
<parameter name="use_drift" condition="string">no</parameter>
<parameter name="usedrift" condition="string">no</parameter>
<parameter name="walkers" condition="int">1</parameter>
<parameter name="warmup_steps" condition="int">0</parameter>
<parameter name="warmupsteps" condition="int">0</parameter>
  DumpConfig==false Nothing (configurations, state) will be saved.
  Walker Samples are dumped every 1 steps.
</vmc>
  EstimatorManagerBase::add replace LocalEnergy estimator.
  EstimatorManagerBase::add replace LocalEnergy estimator.
<optimization-report>
<vmc stage="main" blocks="300">
  Cannot make clones again. Use existing 1 clones
  Initial partition of walkers 0 1 
  Using Particle by Particle moves
  Walker moves without drift
  Total Sample Size   =512000
  Walker distribution on root = 0 1 
  Using Locality Approximation
===== Memory Usage after the buffer registration =====
Available memory on node 0, free + buffers : 84196 MB
Memory footprint by rank 0 on node 0       : 96 MB
==================================================
====================================================
  SimpleFixedNodeBranch::finalize after a VMC block
    QMC counter        = 3
    time step          = 0.15
    reference energy   = -10.084
    reference variance = 0.0439835
====================================================
  Execution time = 3.0889e+00
</vmc>
<opt stage="setup">
  <log>
   Reading configurations from h5FileRoot S.log.s003
  QMCCostFunction is created with 1 threads.
  Using Nonlocal PP in Opt: NonLocalECP
   Number of samples loaded to each thread : 500 
  VMC Eavg = -1.0086e+01
  VMC Evar = 4.8310e-02
  Total weights = 5.1200e+05
  Execution time = 1.1701e+00
  </log>
</opt>
<opt stage="main" walkers="512000">
  <log>

*****************************************
Building overlap and Hamiltonian matrices
*****************************************

Among totally 82 optimized parameters, largest LM parameter change : 2.1673e-02 at parameter 22

******************************************************************************
Init Cost =  -9.5788e+00    New Cost =  -9.5790e+00  Delta Cost =  -1.8081e-04
******************************************************************************

The new set of parameters is valid. Updating the trial wave function!

*****************************************************************************
Applying the update for shift_i =   1.0000e-02     and shift_s =   1.5625e-02
*****************************************************************************
  Execution time = 5.3453e+00
  </log>
  <optVariables href="S.log.s003.opt.xml">
uu_0 4.4705e-01 1 1  ON 0
uu_1 2.5449e-01 1 1  ON 1
uu_2 1.2555e-01 1 1  ON 2
uu_3 2.8739e-02 1 1  ON 3
uu_4 -3.2357e-02 1 1  ON 4
uu_5 -8.5276e-02 1 1  ON 5
uu_6 -1.2617e-01 1 1  ON 6
uu_7 -1.4673e-01 1 1  ON 7
uu_8 -1.4748e-01 1 1  ON 8
uu_9 -1.1932e-01 1 1  ON 9
ud_0 8.0757e-01 1 1  ON 10
ud_1 4.5971e-01 1 1  ON 11
ud_2 2.4011e-01 1 1  ON 12
ud_3 9.2819e-02 1 1  ON 13
ud_4 7.0111e-03 1 1  ON 14
ud_5 -6.2460e-02 1 1  ON 15
ud_6 -1.1322e-01 1 1  ON 16
ud_7 -1.5309e-01 1 1  ON 17
ud_8 -1.6631e-01 1 1  ON 18
ud_9 -1.5560e-01 1 1  ON 19
eS_0 -1.0101e+00 1 1  ON 20
eS_1 -8.8547e-01 1 1  ON 21
eS_2 -6.2482e-01 1 1  ON 22
eS_3 -1.7352e-01 1 1  ON 23
eS_4 2.5381e-01 1 1  ON 24
eS_5 4.2242e-01 1 1  ON 25
eS_6 5.8956e-01 1 1  ON 26
eS_7 6.6780e-01 1 1  ON 27
eS_8 5.7318e-01 1 1  ON 28
eS_9 2.0554e-01 1 1  ON 29
uuS_0 -3.7774e-05 1 1  ON 30
uuS_1 5.5725e-05 1 1  ON 31
uuS_2 1.6318e-05 1 1  ON 32
uuS_3 7.7205e-05 1 1  ON 33
uuS_4 1.3320e-05 1 1  ON 34
uuS_5 -6.0008e-07 1 1  ON 35
uuS_6 1.4143e-04 1 1  ON 36
uuS_7 3.4357e-05 1 1  ON 37
uuS_8 -8.8054e-05 1 1  ON 38
uuS_9 -8.0777e-05 1 1  ON 39
uuS_10 3.8311e-05 1 1  ON 40
uuS_11 2.0302e-06 1 1  ON 41
uuS_12 3.2950e-05 1 1  ON 42
uuS_13 -1.4200e-04 1 1  ON 43
uuS_14 -3.6241e-05 1 1  ON 44
uuS_15 2.6204e-07 1 1  ON 45
uuS_16 1.8047e-04 1 1  ON 46
uuS_17 -1.9935e-04 1 1  ON 47
uuS_18 3.9759e-05 1 1  ON 48
uuS_19 -1.5716e-05 1 1  ON 49
uuS_20 3.1705e-05 1 1  ON 50
uuS_21 2.5427e-06 1 1  ON 51
uuS_22 8.1455e-07 1 1  ON 52
uuS_23 -9.9187e-06 1 1  ON 53
uuS_24 1.8391e-07 1 1  ON 54
uuS_25 -1.1700e-07 1 1  ON 55
udS_0 -4.6068e-05 1 1  ON 56
udS_1 1.5145e-04 1 1  ON 57
udS_2 7.7155e-05 1 1  ON 58
udS_3 1.0353e-04 1 1  ON 59
udS_4 1.3872e-05 1 1  ON 60
udS_5 -6.1300e-06 1 1  ON 61
udS_6 3.7112e-04 1 1  ON 62
udS_7 2.1077e-05 1 1  ON 63
udS_8 -8.4366e-05 1 1  ON 64
udS_9 -2.8356e-04 1 1  ON 65
udS_10 4.9221e-05 1 1  ON 66
udS_11 -1.2131e-05 1 1  ON 67
udS_12 4.4525e-05 1 1  ON 68
udS_13 -1.2947e-04 1 1  ON 69
udS_14 -4.9595e-05 1 1  ON 70
udS_15 3.2396e-07 1 1  ON 71
udS_16 4.2003e-04 1 1  ON 72
udS_17 -2.4179e-04 1 1  ON 73
udS_18 2.7838e-05 1 1  ON 74
udS_19 -2.1240e-05 1 1  ON 75
udS_20 -1.3354e-05 1 1  ON 76
udS_21 1.3836e-05 1 1  ON 77
udS_22 5.6831e-08 1 1  ON 78
udS_23 1.3938e-06 1 1  ON 79
udS_24 -3.0775e-06 1 1  ON 80
udS_25 3.2514e-07 1 1  ON 81
  </optVariables>
   Restore the number of walkers to 1, removing 0 walkers.
</opt>
</optimization-report>
  QMC Execution time = 5.3589e+00 secs 
  Reusing QMCFixedSampleLinearOptimize
 Using QMCCostFunction::QMCCostFunction

=========================================================
  Start QMCFixedSampleLinearOptimize
  File Root S.log.s004 append = no 
=========================================================
  Skip QMCDriver::putQMCInfo 
  Resetting Properties of the walkers 1 x 13

=========================================================
  Start VMC
  File Root S.log.s004 append = no 
=========================================================
Using existing walkers 
  Resetting Properties of the walkers 1 x 13

<vmc function="put">
  qmc_counter=3  my_counter=3
  time step      = 1.5000e-01
  blocks         = 300
  steps          = 2
  substeps       = 5
  current        = 0
  target samples = 5.1200e+05
  walkers/mpi    = 1

  stepsbetweensamples = 1
<parameter name="blocks" condition="int">300</parameter>
<parameter name="blocks_between_recompute" condition="int">0</parameter>
<parameter name="check_properties" condition="int">100</parameter>
<parameter name="checkproperties" condition="int">100</parameter>
<parameter name="current" condition="int">0</parameter>
<parameter name="dmcwalkersperthread" condition="real">5.0000e+02</parameter>
<parameter name="maxcpusecs" condition="real">3.6000e+05</parameter>
<parameter name="record_configs" condition="int">0</parameter>
<parameter name="record_walkers" condition="int">1</parameter>
<parameter name="recordconfigs" condition="int">0</parameter>
<parameter name="recordwalkers" condition="int">1</parameter>
<parameter name="rewind" condition="int">0</parameter>
<parameter name="samples" condition="real">5.1200e+05</parameter>
<parameter name="samplesperthread" condition="real">5.0000e+02</parameter>
<parameter name="steps" condition="int">2</parameter>
<parameter name="stepsbetweensamples" condition="int">1</parameter>
<parameter name="store_configs" condition="int">0</parameter>
<parameter name="storeconfigs" condition="int">0</parameter>
<parameter name="sub_steps" condition="int">5</parameter>
<parameter name="substeps" condition="int">5</parameter>
<parameter name="tau" condition="au">1.5000e-01</parameter>
<parameter name="time_step" condition="au">1.5000e-01</parameter>
<parameter name="timestep" condition="au">1.5000e-01</parameter>
<parameter name="use_drift" condition="string">no</parameter>
<parameter name="usedrift" condition="string">no</parameter>
<parameter name="walkers" condition="int">1</parameter>
<parameter name="warmup_steps" condition="int">0</parameter>
<parameter name="warmupsteps" condition="int">0</parameter>
  DumpConfig==false Nothing (configurations, state) will be saved.
  Walker Samples are dumped every 1 steps.
</vmc>
  EstimatorManagerBase::add replace LocalEnergy estimator.
  EstimatorManagerBase::add replace LocalEnergy estimator.
<optimization-report>
<vmc stage="main" blocks="300">
  Cannot make clones again. Use existing 1 clones
  Initial partition of walkers 0 1 
  Using Particle by Particle moves
  Walker moves without drift
  Total Sample Size   =512000
  Walker distribution on root = 0 1 
  Using Locality Approximation
===== Memory Usage after the buffer registration =====
Available memory on node 0, free + buffers : 84193 MB
Memory footprint by rank 0 on node 0       : 98 MB
==================================================
====================================================
  SimpleFixedNodeBranch::finalize after a VMC block
    QMC counter        = 4
    time step          = 0.15
    reference energy   = -10.0895
    reference variance = 0.041491
====================================================
  Execution time = 3.0529e+00
</vmc>
<opt stage="setup">
  <log>
   Reading configurations from h5FileRoot S.log.s004
  QMCCostFunction is created with 1 threads.
  Using Nonlocal PP in Opt: NonLocalECP
   Number of samples loaded to each thread : 500 
  VMC Eavg = -1.0086e+01
  VMC Evar = 5.0811e-02
  Total weights = 5.1200e+05
  Execution time = 1.1398e+00
  </log>
</opt>
<opt stage="main" walkers="512000">
  <log>

*****************************************
Building overlap and Hamiltonian matrices
*****************************************

Among totally 82 optimized parameters, largest LM parameter change : 1.5258e-02 at parameter 22

******************************************************************************
Init Cost =  -9.5796e+00    New Cost =  -9.5796e+00  Delta Cost =  -4.5064e-05
******************************************************************************

The new set of parameters is valid. Updating the trial wave function!

*****************************************************************************
Applying the update for shift_i =   1.0000e-02     and shift_s =   3.9062e-03
*****************************************************************************
  Execution time = 5.2996e+00
  </log>
  <optVariables href="S.log.s004.opt.xml">
uu_0 4.3630e-01 1 1  ON 0
uu_1 2.4797e-01 1 1  ON 1
uu_2 1.2445e-01 1 1  ON 2
uu_3 3.2162e-02 1 1  ON 3
uu_4 -2.5458e-02 1 1  ON 4
uu_5 -7.7872e-02 1 1  ON 5
uu_6 -1.1971e-01 1 1  ON 6
uu_7 -1.4156e-01 1 1  ON 7
uu_8 -1.4386e-01 1 1  ON 8
uu_9 -1.1795e-01 1 1  ON 9
ud_0 8.1074e-01 1 1  ON 10
ud_1 4.6320e-01 1 1  ON 11
ud_2 2.4375e-01 1 1  ON 12
ud_3 9.7127e-02 1 1  ON 13
ud_4 1.2302e-02 1 1  ON 14
ud_5 -5.7223e-02 1 1  ON 15
ud_6 -1.0875e-01 1 1  ON 16
ud_7 -1.4869e-01 1 1  ON 17
ud_8 -1.6377e-01 1 1  ON 18
ud_9 -1.5376e-01 1 1  ON 19
eS_0 -1.0040e+00 1 1  ON 20
eS_1 -8.9344e-01 1 1  ON 21
eS_2 -6.4007e-01 1 1  ON 22
eS_3 -1.8171e-01 1 1  ON 23
eS_4 2.5616e-01 1 1  ON 24
eS_5 4.2033e-01 1 1  ON 25
eS_6 5.8950e-01 1 1  ON 26
eS_7 6.6776e-01 1 1  ON 27
eS_8 5.8360e-01 1 1  ON 28
eS_9 2.1838e-01 1 1  ON 29
uuS_0 -3.9677e-05 1 1  ON 30
uuS_1 7.9718e-05 1 1  ON 31
uuS_2 2.7567e-05 1 1  ON 32
uuS_3 7.2261e-05 1 1  ON 33
uuS_4 9.7019e-06 1 1  ON 34
uuS_5 -1.3987e-06 1 1  ON 35
uuS_6 1.8767e-04 1 1  ON 36
uuS_7 2.2742e-05 1 1  ON 37
uuS_8 -8.1919e-05 1 1  ON 38
uuS_9 -1.1203e-04 1 1  ON 39
uuS_10 3.1804e-05 1 1  ON 40
uuS_11 2.5487e-06 1 1  ON 41
uuS_12 3.1042e-05 1 1  ON 42
uuS_13 -1.3627e-04 1 1  ON 43
uuS_14 -3.6396e-05 1 1  ON 44
uuS_15 4.3462e-07 1 1  ON 45
uuS_16 2.1966e-04 1 1  ON 46
uuS_17 -2.0341e-04 1 1  ON 47
uuS_18 3.9191e-05 1 1  ON 48
uuS_19 -1.4852e-05 1 1  ON 49
uuS_20 2.3788e-05 1 1  ON 50
uuS_21 3.2222e-06 1 1  ON 51
uuS_22 6.5064e-07 1 1  ON 52
uuS_23 -7.8327e-06 1 1  ON 53
uuS_24 -1.0496e-07 1 1  ON 54
uuS_25 -7.0881e-08 1 1  ON 55
udS_0 -4.8707e-05 1 1  ON 56
udS_1 1.5791e-04 1 1  ON 57
udS_2 7.8515e-05 1 1  ON 58
udS_3 1.0747e-04 1 1  ON 59
udS_4 1.4069e-05 1 1  ON 60
udS_5 -6.3083e-06 1 1  ON 61
udS_6 3.8314e-04 1 1  ON 62
udS_7 2.6942e-05 1 1  ON 63
udS_8 -8.8507e-05 1 1  ON 64
udS_9 -2.9111e-04 1 1  ON 65
udS_10 5.0109e-05 1 1  ON 66
udS_11 -1.3041e-05 1 1  ON 67
udS_12 4.6053e-05 1 1  ON 68
udS_13 -1.3850e-04 1 1  ON 69
udS_14 -5.1179e-05 1 1  ON 70
udS_15 3.1194e-07 1 1  ON 71
udS_16 4.3286e-04 1 1  ON 72
udS_17 -2.5316e-04 1 1  ON 73
udS_18 3.0151e-05 1 1  ON 74
udS_19 -2.1993e-05 1 1  ON 75
udS_20 -1.0547e-05 1 1  ON 76
udS_21 1.3797e-05 1 1  ON 77
udS_22 1.3018e-07 1 1  ON 78
udS_23 2.6399e-07 1 1  ON 79
udS_24 -2.9861e-06 1 1  ON 80
udS_25 3.0137e-07 1 1  ON 81
  </optVariables>
   Restore the number of walkers to 1, removing 0 walkers.
</opt>
</optimization-report>
  QMC Execution time = 5.3127e+00 secs 
  Reusing QMCFixedSampleLinearOptimize
 Using QMCCostFunction::QMCCostFunction

=========================================================
  Start QMCFixedSampleLinearOptimize
  File Root S.log.s005 append = no 
=========================================================
  Skip QMCDriver::putQMCInfo 
  Resetting Properties of the walkers 1 x 13

=========================================================
  Start VMC
  File Root S.log.s005 append = no 
=========================================================
Using existing walkers 
  Resetting Properties of the walkers 1 x 13

<vmc function="put">
  qmc_counter=4  my_counter=4
  time step      = 1.5000e-01
  blocks         = 300
  steps          = 2
  substeps       = 5
  current        = 0
  target samples = 5.1200e+05
  walkers/mpi    = 1

  stepsbetweensamples = 1
<parameter name="blocks" condition="int">300</parameter>
<parameter name="blocks_between_recompute" condition="int">0</parameter>
<parameter name="check_properties" condition="int">100</parameter>
<parameter name="checkproperties" condition="int">100</parameter>
<parameter name="current" condition="int">0</parameter>
<parameter name="dmcwalkersperthread" condition="real">5.0000e+02</parameter>
<parameter name="maxcpusecs" condition="real">3.6000e+05</parameter>
<parameter name="record_configs" condition="int">0</parameter>
<parameter name="record_walkers" condition="int">1</parameter>
<parameter name="recordconfigs" condition="int">0</parameter>
<parameter name="recordwalkers" condition="int">1</parameter>
<parameter name="rewind" condition="int">0</parameter>
<parameter name="samples" condition="real">5.1200e+05</parameter>
<parameter name="samplesperthread" condition="real">5.0000e+02</parameter>
<parameter name="steps" condition="int">2</parameter>
<parameter name="stepsbetweensamples" condition="int">1</parameter>
<parameter name="store_configs" condition="int">0</parameter>
<parameter name="storeconfigs" condition="int">0</parameter>
<parameter name="sub_steps" condition="int">5</parameter>
<parameter name="substeps" condition="int">5</parameter>
<parameter name="tau" condition="au">1.5000e-01</parameter>
<parameter name="time_step" condition="au">1.5000e-01</parameter>
<parameter name="timestep" condition="au">1.5000e-01</parameter>
<parameter name="use_drift" condition="string">no</parameter>
<parameter name="usedrift" condition="string">no</parameter>
<parameter name="walkers" condition="int">1</parameter>
<parameter name="warmup_steps" condition="int">0</parameter>
<parameter name="warmupsteps" condition="int">0</parameter>
  DumpConfig==false Nothing (configurations, state) will be saved.
  Walker Samples are dumped every 1 steps.
</vmc>
  EstimatorManagerBase::add replace LocalEnergy estimator.
  EstimatorManagerBase::add replace LocalEnergy estimator.
<optimization-report>
<vmc stage="main" blocks="300">
  Cannot make clones again. Use existing 1 clones
  Initial partition of walkers 0 1 
  Using Particle by Particle moves
  Walker moves without drift
  Total Sample Size   =512000
  Walker distribution on root = 0 1 
  Using Locality Approximation
===== Memory Usage after the buffer registration =====
Available memory on node 0, free + buffers : 84190 MB
Memory footprint by rank 0 on node 0       : 100 MB
==================================================
====================================================
  SimpleFixedNodeBranch::finalize after a VMC block
    QMC counter        = 5
    time step          = 0.15
    reference energy   = -10.0862
    reference variance = 0.0561718
====================================================
  Execution time = 3.2541e+00
</vmc>
<opt stage="setup">
  <log>
   Reading configurations from h5FileRoot S.log.s005
  QMCCostFunction is created with 1 threads.
  Using Nonlocal PP in Opt: NonLocalECP
   Number of samples loaded to each thread : 500 
  VMC Eavg = -1.0086e+01
  VMC Evar = 5.2322e-02
  Total weights = 5.1200e+05
  Execution time = 1.1451e+00
  </log>
</opt>
<opt stage="main" walkers="512000">
  <log>

*****************************************
Building overlap and Hamiltonian matrices
*****************************************

Among totally 82 optimized parameters, largest LM parameter change : 1.4142e+02 at parameter 20

******************************************************************************
Init Cost =  -9.5786e+00    New Cost =  -2.1335e+02  Delta Cost =  -2.0377e+02
******************************************************************************

The new set of parameters is not valid. Revert to the old set!

*****************************************************************************
Applying the update for shift_i =   1.0000e-02     and shift_s =   1.5625e-02
*****************************************************************************
  Execution time = 4.7550e+00
  </log>
  <optVariables href="S.log.s005.opt.xml">
uu_0 4.3630e-01 1 1  ON 0
uu_1 2.4797e-01 1 1  ON 1
uu_2 1.2445e-01 1 1  ON 2
uu_3 3.2162e-02 1 1  ON 3
uu_4 -2.5458e-02 1 1  ON 4
uu_5 -7.7872e-02 1 1  ON 5
uu_6 -1.1971e-01 1 1  ON 6
uu_7 -1.4156e-01 1 1  ON 7
uu_8 -1.4386e-01 1 1  ON 8
uu_9 -1.1795e-01 1 1  ON 9
ud_0 8.1074e-01 1 1  ON 10
ud_1 4.6320e-01 1 1  ON 11
ud_2 2.4375e-01 1 1  ON 12
ud_3 9.7127e-02 1 1  ON 13
ud_4 1.2302e-02 1 1  ON 14
ud_5 -5.7223e-02 1 1  ON 15
ud_6 -1.0875e-01 1 1  ON 16
ud_7 -1.4869e-01 1 1  ON 17
ud_8 -1.6377e-01 1 1  ON 18
ud_9 -1.5376e-01 1 1  ON 19
eS_0 -1.0040e+00 1 1  ON 20
eS_1 -8.9344e-01 1 1  ON 21
eS_2 -6.4007e-01 1 1  ON 22
eS_3 -1.8171e-01 1 1  ON 23
eS_4 2.5616e-01 1 1  ON 24
eS_5 4.2033e-01 1 1  ON 25
eS_6 5.8950e-01 1 1  ON 26
eS_7 6.6776e-01 1 1  ON 27
eS_8 5.8360e-01 1 1  ON 28
eS_9 2.1838e-01 1 1  ON 29
uuS_0 -3.9677e-05 1 1  ON 30
uuS_1 7.9718e-05 1 1  ON 31
uuS_2 2.7567e-05 1 1  ON 32
uuS_3 7.2261e-05 1 1  ON 33
uuS_4 9.7019e-06 1 1  ON 34
uuS_5 -1.3987e-06 1 1  ON 35
uuS_6 1.8767e-04 1 1  ON 36
uuS_7 2.2742e-05 1 1  ON 37
uuS_8 -8.1919e-05 1 1  ON 38
uuS_9 -1.1203e-04 1 1  ON 39
uuS_10 3.1804e-05 1 1  ON 40
uuS_11 2.5487e-06 1 1  ON 41
uuS_12 3.1042e-05 1 1  ON 42
uuS_13 -1.3627e-04 1 1  ON 43
uuS_14 -3.6396e-05 1 1  ON 44
uuS_15 4.3462e-07 1 1  ON 45
uuS_16 2.1966e-04 1 1  ON 46
uuS_17 -2.0341e-04 1 1  ON 47
uuS_18 3.9191e-05 1 1  ON 48
uuS_19 -1.4852e-05 1 1  ON 49
uuS_20 2.3788e-05 1 1  ON 50
uuS_21 3.2222e-06 1 1  ON 51
uuS_22 6.5064e-07 1 1  ON 52
uuS_23 -7.8327e-06 1 1  ON 53
uuS_24 -1.0496e-07 1 1  ON 54
uuS_25 -7.0881e-08 1 1  ON 55
udS_0 -4.8707e-05 1 1  ON 56
udS_1 1.5791e-04 1 1  ON 57
udS_2 7.8515e-05 1 1  ON 58
udS_3 1.0747e-04 1 1  ON 59
udS_4 1.4069e-05 1 1  ON 60
udS_5 -6.3083e-06 1 1  ON 61
udS_6 3.8314e-04 1 1  ON 62
udS_7 2.6942e-05 1 1  ON 63
udS_8 -8.8507e-05 1 1  ON 64
udS_9 -2.9111e-04 1 1  ON 65
udS_10 5.0109e-05 1 1  ON 66
udS_11 -1.3041e-05 1 1  ON 67
udS_12 4.6053e-05 1 1  ON 68
udS_13 -1.3850e-04 1 1  ON 69
udS_14 -5.1179e-05 1 1  ON 70
udS_15 3.1194e-07 1 1  ON 71
udS_16 4.3286e-04 1 1  ON 72
udS_17 -2.5316e-04 1 1  ON 73
udS_18 3.0151e-05 1 1  ON 74
udS_19 -2.1993e-05 1 1  ON 75
udS_20 -1.0547e-05 1 1  ON 76
udS_21 1.3797e-05 1 1  ON 77
udS_22 1.3018e-07 1 1  ON 78
udS_23 2.6399e-07 1 1  ON 79
udS_24 -2.9861e-06 1 1  ON 80
udS_25 3.0137e-07 1 1  ON 81
  </optVariables>
   Restore the number of walkers to 1, removing 0 walkers.
</opt>
</optimization-report>
  QMC Execution time = 4.7683e+00 secs 
  Reusing QMCFixedSampleLinearOptimize
 Using QMCCostFunction::QMCCostFunction

=========================================================
  Start QMCFixedSampleLinearOptimize
  File Root S.log.s006 append = no 
=========================================================
  Skip QMCDriver::putQMCInfo 
  Resetting Properties of the walkers 1 x 13

=========================================================
  Start VMC
  File Root S.log.s006 append = no 
=========================================================
Using existing walkers 
  Resetting Properties of the walkers 1 x 13

<vmc function="put">
  qmc_counter=5  my_counter=5
  time step      = 1.5000e-01
  blocks         = 300
  steps          = 2
  substeps       = 5
  current        = 0
  target samples = 5.1200e+05
  walkers/mpi    = 1

  stepsbetweensamples = 1
<parameter name="blocks" condition="int">300</parameter>
<parameter name="blocks_between_recompute" condition="int">0</parameter>
<parameter name="check_properties" condition="int">100</parameter>
<parameter name="checkproperties" condition="int">100</parameter>
<parameter name="current" condition="int">0</parameter>
<parameter name="dmcwalkersperthread" condition="real">5.0000e+02</parameter>
<parameter name="maxcpusecs" condition="real">3.6000e+05</parameter>
<parameter name="record_configs" condition="int">0</parameter>
<parameter name="record_walkers" condition="int">1</parameter>
<parameter name="recordconfigs" condition="int">0</parameter>
<parameter name="recordwalkers" condition="int">1</parameter>
<parameter name="rewind" condition="int">0</parameter>
<parameter name="samples" condition="real">5.1200e+05</parameter>
<parameter name="samplesperthread" condition="real">5.0000e+02</parameter>
<parameter name="steps" condition="int">2</parameter>
<parameter name="stepsbetweensamples" condition="int">1</parameter>
<parameter name="store_configs" condition="int">0</parameter>
<parameter name="storeconfigs" condition="int">0</parameter>
<parameter name="sub_steps" condition="int">5</parameter>
<parameter name="substeps" condition="int">5</parameter>
<parameter name="tau" condition="au">1.5000e-01</parameter>
<parameter name="time_step" condition="au">1.5000e-01</parameter>
<parameter name="timestep" condition="au">1.5000e-01</parameter>
<parameter name="use_drift" condition="string">no</parameter>
<parameter name="usedrift" condition="string">no</parameter>
<parameter name="walkers" condition="int">1</parameter>
<parameter name="warmup_steps" condition="int">0</parameter>
<parameter name="warmupsteps" condition="int">0</parameter>
  DumpConfig==false Nothing (configurations, state) will be saved.
  Walker Samples are dumped every 1 steps.
</vmc>
  EstimatorManagerBase::add replace LocalEnergy estimator.
  EstimatorManagerBase::add replace LocalEnergy estimator.
<optimization-report>
<vmc stage="main" blocks="300">
  Cannot make clones again. Use existing 1 clones
  Initial partition of walkers 0 1 
  Using Particle by Particle moves
  Walker moves without drift
  Total Sample Size   =512000
  Walker distribution on root = 0 1 
  Using Locality Approximation
===== Memory Usage after the buffer registration =====
Available memory on node 0, free + buffers : 84187 MB
Memory footprint by rank 0 on node 0       : 103 MB
==================================================
====================================================
  SimpleFixedNodeBranch::finalize after a VMC block
    QMC counter        = 6
    time step          = 0.15
    reference energy   = -10.0832
    reference variance = 0.041516
====================================================
  Execution time = 3.1061e+00
</vmc>
<opt stage="setup">
  <log>
   Reading configurations from h5FileRoot S.log.s006
  QMCCostFunction is created with 1 threads.
  Using Nonlocal PP in Opt: NonLocalECP
   Number of samples loaded to each thread : 500 
  VMC Eavg = -1.0085e+01
  VMC Evar = 5.2059e-02
  Total weights = 5.1200e+05
  Execution time = 1.1501e+00
  </log>
</opt>
<opt stage="main" walkers="512000">
  <log>

*****************************************
Building overlap and Hamiltonian matrices
*****************************************

Among totally 82 optimized parameters, largest LM parameter change : 1.3391e-02 at parameter 22

******************************************************************************
Init Cost =  -9.5786e+00    New Cost =  -9.5786e+00  Delta Cost =   1.1360e-06
******************************************************************************

The new set of parameters is valid. Updating the trial wave function!

*****************************************************************************
Applying the update for shift_i =   1.0000e-02     and shift_s =   3.9062e-03
*****************************************************************************
  Execution time = 5.3514e+00
  </log>
  <optVariables href="S.log.s006.opt.xml">
uu_0 4.2981e-01 1 1  ON 0
uu_1 2.4646e-01 1 1  ON 1
uu_2 1.2547e-01 1 1  ON 2
uu_3 3.5277e-02 1 1  ON 3
uu_4 -2.1858e-02 1 1  ON 4
uu_5 -7.4261e-02 1 1  ON 5
uu_6 -1.1567e-01 1 1  ON 6
uu_7 -1.3787e-01 1 1  ON 7
uu_8 -1.4147e-01 1 1  ON 8
uu_9 -1.1835e-01 1 1  ON 9
ud_0 8.1702e-01 1 1  ON 10
ud_1 4.6940e-01 1 1  ON 11
ud_2 2.4873e-01 1 1  ON 12
ud_3 1.0138e-01 1 1  ON 13
ud_4 1.6642e-02 1 1  ON 14
ud_5 -5.2572e-02 1 1  ON 15
ud_6 -1.0357e-01 1 1  ON 16
ud_7 -1.4473e-01 1 1  ON 17
ud_8 -1.5976e-01 1 1  ON 18
ud_9 -1.5203e-01 1 1  ON 19
eS_0 -1.0011e+00 1 1  ON 20
eS_1 -9.0196e-01 1 1  ON 21
eS_2 -6.5347e-01 1 1  ON 22
eS_3 -1.8736e-01 1 1  ON 23
eS_4 2.5962e-01 1 1  ON 24
eS_5 4.1780e-01 1 1  ON 25
eS_6 5.9009e-01 1 1  ON 26
eS_7 6.7031e-01 1 1  ON 27
eS_8 5.9058e-01 1 1  ON 28
eS_9 2.2942e-01 1 1  ON 29
uuS_0 -3.9013e-05 1 1  ON 30
uuS_1 7.4882e-05 1 1  ON 31
uuS_2 2.9255e-05 1 1  ON 32
uuS_3 7.5015e-05 1 1  ON 33
uuS_4 9.5465e-06 1 1  ON 34
uuS_5 -1.2093e-07 1 1  ON 35
uuS_6 1.7956e-04 1 1  ON 36
uuS_7 3.6857e-05 1 1  ON 37
uuS_8 -7.7225e-05 1 1  ON 38
uuS_9 -1.1243e-04 1 1  ON 39
uuS_10 3.4334e-05 1 1  ON 40
uuS_11 -7.8822e-06 1 1  ON 41
uuS_12 3.0420e-05 1 1  ON 42
uuS_13 -1.3766e-04 1 1  ON 43
uuS_14 -3.4674e-05 1 1  ON 44
uuS_15 3.2516e-07 1 1  ON 45
uuS_16 2.2344e-04 1 1  ON 46
uuS_17 -2.0583e-04 1 1  ON 47
uuS_18 4.5673e-05 1 1  ON 48
uuS_19 -1.5168e-05 1 1  ON 49
uuS_20 2.3520e-05 1 1  ON 50
uuS_21 2.1090e-06 1 1  ON 51
uuS_22 7.9512e-07 1 1  ON 52
uuS_23 -7.7298e-06 1 1  ON 53
uuS_24 8.5124e-08 1 1  ON 54
uuS_25 -1.0834e-07 1 1  ON 55
udS_0 -5.2257e-05 1 1  ON 56
udS_1 1.5424e-04 1 1  ON 57
udS_2 8.1924e-05 1 1  ON 58
udS_3 1.1448e-04 1 1  ON 59
udS_4 1.5191e-05 1 1  ON 60
udS_5 -5.9459e-06 1 1  ON 61
udS_6 3.8339e-04 1 1  ON 62
udS_7 3.3542e-05 1 1  ON 63
udS_8 -9.0526e-05 1 1  ON 64
udS_9 -2.9079e-04 1 1  ON 65
udS_10 5.5578e-05 1 1  ON 66
udS_11 -1.7980e-05 1 1  ON 67
udS_12 4.7553e-05 1 1  ON 68
udS_13 -1.4755e-04 1 1  ON 69
udS_14 -5.2476e-05 1 1  ON 70
udS_15 3.0040e-07 1 1  ON 71
udS_16 4.3690e-04 1 1  ON 72
udS_17 -2.6458e-04 1 1  ON 73
udS_18 3.4544e-05 1 1  ON 74
udS_19 -2.2855e-05 1 1  ON 75
udS_20 -7.4217e-06 1 1  ON 76
udS_21 1.3681e-05 1 1  ON 77
udS_22 1.7904e-07 1 1  ON 78
udS_23 -7.3053e-07 1 1  ON 79
udS_24 -2.9636e-06 1 1  ON 80
udS_25 2.9956e-07 1 1  ON 81
  </optVariables>
   Restore the number of walkers to 1, removing 0 walkers.
</opt>
</optimization-report>
  QMC Execution time = 5.3649e+00 secs 
  Reusing QMCFixedSampleLinearOptimize
 Using QMCCostFunction::QMCCostFunction

=========================================================
  Start QMCFixedSampleLinearOptimize
  File Root S.log.s007 append = no 
=========================================================
  Skip QMCDriver::putQMCInfo 
  Resetting Properties of the walkers 1 x 13

=========================================================
  Start VMC
  File Root S.log.s007 append = no 
=========================================================
Using existing walkers 
  Resetting Properties of the walkers 1 x 13

<vmc function="put">
  qmc_counter=6  my_counter=6
  time step      = 1.5000e-01
  blocks         = 300
  steps          = 2
  substeps       = 5
  current        = 0
  target samples = 5.1200e+05
  walkers/mpi    = 1

  stepsbetweensamples = 1
<parameter name="blocks" condition="int">300</parameter>
<parameter name="blocks_between_recompute" condition="int">0</parameter>
<parameter name="check_properties" condition="int">100</parameter>
<parameter name="checkproperties" condition="int">100</parameter>
<parameter name="current" condition="int">0</parameter>
<parameter name="dmcwalkersperthread" condition="real">5.0000e+02</parameter>
<parameter name="maxcpusecs" condition="real">3.6000e+05</parameter>
<parameter name="record_configs" condition="int">0</parameter>
<parameter name="record_walkers" condition="int">1</parameter>
<parameter name="recordconfigs" condition="int">0</parameter>
<parameter name="recordwalkers" condition="int">1</parameter>
<parameter name="rewind" condition="int">0</parameter>
<parameter name="samples" condition="real">5.1200e+05</parameter>
<parameter name="samplesperthread" condition="real">5.0000e+02</parameter>
<parameter name="steps" condition="int">2</parameter>
<parameter name="stepsbetweensamples" condition="int">1</parameter>
<parameter name="store_configs" condition="int">0</parameter>
<parameter name="storeconfigs" condition="int">0</parameter>
<parameter name="sub_steps" condition="int">5</parameter>
<parameter name="substeps" condition="int">5</parameter>
<parameter name="tau" condition="au">1.5000e-01</parameter>
<parameter name="time_step" condition="au">1.5000e-01</parameter>
<parameter name="timestep" condition="au">1.5000e-01</parameter>
<parameter name="use_drift" condition="string">no</parameter>
<parameter name="usedrift" condition="string">no</parameter>
<parameter name="walkers" condition="int">1</parameter>
<parameter name="warmup_steps" condition="int">0</parameter>
<parameter name="warmupsteps" condition="int">0</parameter>
  DumpConfig==false Nothing (configurations, state) will be saved.
  Walker Samples are dumped every 1 steps.
</vmc>
  EstimatorManagerBase::add replace LocalEnergy estimator.
  EstimatorManagerBase::add replace LocalEnergy estimator.
<optimization-report>
<vmc stage="main" blocks="300">
  Cannot make clones again. Use existing 1 clones
  Initial partition of walkers 0 1 
  Using Particle by Particle moves
  Walker moves without drift
  Total Sample Size   =512000
  Walker distribution on root = 0 1 
  Using Locality Approximation
===== Memory Usage after the buffer registration =====
Available memory on node 0, free + buffers : 84183 MB
Memory footprint by rank 0 on node 0       : 105 MB
==================================================
====================================================
  SimpleFixedNodeBranch::finalize after a VMC block
    QMC counter        = 7
    time step          = 0.15
    reference energy   = -10.069
    reference variance = 0.0535589
====================================================
  Execution time = 3.0968e+00
</vmc>
<opt stage="setup">
  <log>
   Reading configurations from h5FileRoot S.log.s007
  QMCCostFunction is created with 1 threads.
  Using Nonlocal PP in Opt: NonLocalECP
   Number of samples loaded to each thread : 500 
  VMC Eavg = -1.0086e+01
  VMC Evar = 5.3478e-02
  Total weights = 5.1200e+05
  Execution time = 1.1658e+00
  </log>
</opt>
<opt stage="main" walkers="512000">
  <log>

*****************************************
Building overlap and Hamiltonian matrices
*****************************************

Among totally 82 optimized parameters, largest LM parameter change : 1.1802e-02 at parameter 29

******************************************************************************
Init Cost =  -9.5793e+00    New Cost =  -9.5793e+00  Delta Cost =  -2.0559e-05
******************************************************************************

The new set of parameters is valid. Updating the trial wave function!

*****************************************************************************
Applying the update for shift_i =   1.0000e-02     and shift_s =   3.9062e-03
*****************************************************************************
  Execution time = 5.3224e+00
  </log>
  <optVariables href="S.log.s007.opt.xml">
uu_0 4.2623e-01 1 1  ON 0
uu_1 2.4561e-01 1 1  ON 1
uu_2 1.2624e-01 1 1  ON 2
uu_3 3.8142e-02 1 1  ON 3
uu_4 -1.7639e-02 1 1  ON 4
uu_5 -6.9874e-02 1 1  ON 5
uu_6 -1.1205e-01 1 1  ON 6
uu_7 -1.3495e-01 1 1  ON 7
uu_8 -1.3845e-01 1 1  ON 8
uu_9 -1.1706e-01 1 1  ON 9
ud_0 8.2083e-01 1 1  ON 10
ud_1 4.7389e-01 1 1  ON 11
ud_2 2.5442e-01 1 1  ON 12
ud_3 1.0738e-01 1 1  ON 13
ud_4 2.2315e-02 1 1  ON 14
ud_5 -4.7633e-02 1 1  ON 15
ud_6 -9.9530e-02 1 1  ON 16
ud_7 -1.4045e-01 1 1  ON 17
ud_8 -1.5704e-01 1 1  ON 18
ud_9 -1.4946e-01 1 1  ON 19
eS_0 -9.9858e-01 1 1  ON 20
eS_1 -9.0958e-01 1 1  ON 21
eS_2 -6.6401e-01 1 1  ON 22
eS_3 -1.9330e-01 1 1  ON 23
eS_4 2.5904e-01 1 1  ON 24
eS_5 4.1783e-01 1 1  ON 25
eS_6 5.9003e-01 1 1  ON 26
eS_7 6.7197e-01 1 1  ON 27
eS_8 5.9640e-01 1 1  ON 28
eS_9 2.4122e-01 1 1  ON 29
uuS_0 -3.4341e-05 1 1  ON 30
uuS_1 7.7746e-05 1 1  ON 31
uuS_2 2.7252e-05 1 1  ON 32
uuS_3 7.1183e-05 1 1  ON 33
uuS_4 8.1210e-06 1 1  ON 34
uuS_5 1.8107e-07 1 1  ON 35
uuS_6 1.8024e-04 1 1  ON 36
uuS_7 3.8836e-05 1 1  ON 37
uuS_8 -7.3526e-05 1 1  ON 38
uuS_9 -1.1899e-04 1 1  ON 39
uuS_10 3.0632e-05 1 1  ON 40
uuS_11 -9.8369e-06 1 1  ON 41
uuS_12 2.8812e-05 1 1  ON 42
uuS_13 -1.3057e-04 1 1  ON 43
uuS_14 -3.2672e-05 1 1  ON 44
uuS_15 2.6825e-07 1 1  ON 45
uuS_16 2.3301e-04 1 1  ON 46
uuS_17 -1.9998e-04 1 1  ON 47
uuS_18 4.6489e-05 1 1  ON 48
uuS_19 -1.4671e-05 1 1  ON 49
uuS_20 1.8343e-05 1 1  ON 50
uuS_21 1.6162e-06 1 1  ON 51
uuS_22 8.4497e-07 1 1  ON 52
uuS_23 -6.0970e-06 1 1  ON 53
uuS_24 9.3030e-08 1 1  ON 54
uuS_25 -1.2419e-07 1 1  ON 55
udS_0 -5.0613e-05 1 1  ON 56
udS_1 1.6160e-04 1 1  ON 57
udS_2 8.6565e-05 1 1  ON 58
udS_3 1.1076e-04 1 1  ON 59
udS_4 1.3141e-05 1 1  ON 60
udS_5 -6.0952e-06 1 1  ON 61
udS_6 3.9511e-04 1 1  ON 62
udS_7 3.5202e-05 1 1  ON 63
udS_8 -8.2025e-05 1 1  ON 64
udS_9 -3.0246e-04 1 1  ON 65
udS_10 5.2544e-05 1 1  ON 66
udS_11 -2.4606e-05 1 1  ON 67
udS_12 4.5309e-05 1 1  ON 68
udS_13 -1.4135e-04 1 1  ON 69
udS_14 -5.0260e-05 1 1  ON 70
udS_15 2.8131e-07 1 1  ON 71
udS_16 4.5191e-04 1 1  ON 72
udS_17 -2.6213e-04 1 1  ON 73
udS_18 3.8988e-05 1 1  ON 74
udS_19 -2.2635e-05 1 1  ON 75
udS_20 -1.2619e-05 1 1  ON 76
udS_21 1.2809e-05 1 1  ON 77
udS_22 2.9409e-07 1 1  ON 78
udS_23 6.8890e-07 1 1  ON 79
udS_24 -2.8709e-06 1 1  ON 80
udS_25 2.6455e-07 1 1  ON 81
  </optVariables>
   Restore the number of walkers to 1, removing 0 walkers.
</opt>
</optimization-report>
  QMC Execution time = 5.3363e+00 secs 
  Reusing QMCFixedSampleLinearOptimize
 Using QMCCostFunction::QMCCostFunction

=========================================================
  Start QMCFixedSampleLinearOptimize
  File Root S.log.s008 append = no 
=========================================================
  Skip QMCDriver::putQMCInfo 
  Resetting Properties of the walkers 1 x 13

=========================================================
  Start VMC
  File Root S.log.s008 append = no 
=========================================================
Using existing walkers 
  Resetting Properties of the walkers 1 x 13

<vmc function="put">
  qmc_counter=7  my_counter=7
  time step      = 1.5000e-01
  blocks         = 300
  steps          = 2
  substeps       = 5
  current        = 0
  target samples = 5.1200e+05
  walkers/mpi    = 1

  stepsbetweensamples = 1
<parameter name="blocks" condition="int">300</parameter>
<parameter name="blocks_between_recompute" condition="int">0</parameter>
<parameter name="check_properties" condition="int">100</parameter>
<parameter name="checkproperties" condition="int">100</parameter>
<parameter name="current" condition="int">0</parameter>
<parameter name="dmcwalkersperthread" condition="real">5.0000e+02</parameter>
<parameter name="maxcpusecs" condition="real">3.6000e+05</parameter>
<parameter name="record_configs" condition="int">0</parameter>
<parameter name="record_walkers" condition="int">1</parameter>
<parameter name="recordconfigs" condition="int">0</parameter>
<parameter name="recordwalkers" condition="int">1</parameter>
<parameter name="rewind" condition="int">0</parameter>
<parameter name="samples" condition="real">5.1200e+05</parameter>
<parameter name="samplesperthread" condition="real">5.0000e+02</parameter>
<parameter name="steps" condition="int">2</parameter>
<parameter name="stepsbetweensamples" condition="int">1</parameter>
<parameter name="store_configs" condition="int">0</parameter>
<parameter name="storeconfigs" condition="int">0</parameter>
<parameter name="sub_steps" condition="int">5</parameter>
<parameter name="substeps" condition="int">5</parameter>
<parameter name="tau" condition="au">1.5000e-01</parameter>
<parameter name="time_step" condition="au">1.5000e-01</parameter>
<parameter name="timestep" condition="au">1.5000e-01</parameter>
<parameter name="use_drift" condition="string">no</parameter>
<parameter name="usedrift" condition="string">no</parameter>
<parameter name="walkers" condition="int">1</parameter>
<parameter name="warmup_steps" condition="int">0</parameter>
<parameter name="warmupsteps" condition="int">0</parameter>
  DumpConfig==false Nothing (configurations, state) will be saved.
  Walker Samples are dumped every 1 steps.
</vmc>
  EstimatorManagerBase::add replace LocalEnergy estimator.
  EstimatorManagerBase::add replace LocalEnergy estimator.
<optimization-report>
<vmc stage="main" blocks="300">
  Cannot make clones again. Use existing 1 clones
  Initial partition of walkers 0 1 
  Using Particle by Particle moves
  Walker moves without drift
  Total Sample Size   =512000
  Walker distribution on root = 0 1 
  Using Locality Approximation
===== Memory Usage after the buffer registration =====
Available memory on node 0, free + buffers : 84181 MB
Memory footprint by rank 0 on node 0       : 107 MB
==================================================
====================================================
  SimpleFixedNodeBranch::finalize after a VMC block
    QMC counter        = 8
    time step          = 0.15
    reference energy   = -10.0966
    reference variance = 0.059489
====================================================
  Execution time = 3.1052e+00
</vmc>
<opt stage="setup">
  <log>
   Reading configurations from h5FileRoot S.log.s008
  QMCCostFunction is created with 1 threads.
  Using Nonlocal PP in Opt: NonLocalECP
   Number of samples loaded to each thread : 500 
  VMC Eavg = -1.0086e+01
  VMC Evar = 5.1721e-02
  Total weights = 5.1200e+05
  Execution time = 1.1416e+00
  </log>
</opt>
<opt stage="main" walkers="512000">
  <log>

*****************************************
Building overlap and Hamiltonian matrices
*****************************************

Among totally 82 optimized parameters, largest LM parameter change : 1.2260e-02 at parameter 29

******************************************************************************
Init Cost =  -9.5790e+00    New Cost =  -9.5790e+00  Delta Cost =  -6.9089e-06
******************************************************************************

The new set of parameters is valid. Updating the trial wave function!

*****************************************************************************
Applying the update for shift_i =   1.0000e-02     and shift_s =   3.9062e-03
*****************************************************************************
  Execution time = 5.3126e+00
  </log>
  <optVariables href="S.log.s008.opt.xml">
uu_0 4.2308e-01 1 1  ON 0
uu_1 2.4492e-01 1 1  ON 1
uu_2 1.2671e-01 1 1  ON 2
uu_3 4.0194e-02 1 1  ON 3
uu_4 -1.4950e-02 1 1  ON 4
uu_5 -6.8075e-02 1 1  ON 5
uu_6 -1.1057e-01 1 1  ON 6
uu_7 -1.3347e-01 1 1  ON 7
uu_8 -1.3545e-01 1 1  ON 8
uu_9 -1.1411e-01 1 1  ON 9
ud_0 8.2586e-01 1 1  ON 10
ud_1 4.7873e-01 1 1  ON 11
ud_2 2.5908e-01 1 1  ON 12
ud_3 1.1287e-01 1 1  ON 13
ud_4 2.8225e-02 1 1  ON 14
ud_5 -4.3011e-02 1 1  ON 15
ud_6 -9.6022e-02 1 1  ON 16
ud_7 -1.3800e-01 1 1  ON 17
ud_8 -1.5527e-01 1 1  ON 18
ud_9 -1.4845e-01 1 1  ON 19
eS_0 -9.9624e-01 1 1  ON 20
eS_1 -9.1606e-01 1 1  ON 21
eS_2 -6.7291e-01 1 1  ON 22
eS_3 -1.9968e-01 1 1  ON 23
eS_4 2.5612e-01 1 1  ON 24
eS_5 4.1462e-01 1 1  ON 25
eS_6 5.9062e-01 1 1  ON 26
eS_7 6.7453e-01 1 1  ON 27
eS_8 6.0370e-01 1 1  ON 28
eS_9 2.5348e-01 1 1  ON 29
uuS_0 -3.9892e-05 1 1  ON 30
uuS_1 6.9995e-05 1 1  ON 31
uuS_2 3.1112e-05 1 1  ON 32
uuS_3 7.9307e-05 1 1  ON 33
uuS_4 9.7431e-06 1 1  ON 34
uuS_5 7.0520e-07 1 1  ON 35
uuS_6 1.6830e-04 1 1  ON 36
uuS_7 5.5500e-05 1 1  ON 37
uuS_8 -7.4027e-05 1 1  ON 38
uuS_9 -1.0742e-04 1 1  ON 39
uuS_10 3.8575e-05 1 1  ON 40
uuS_11 -2.1298e-05 1 1  ON 41
uuS_12 3.0616e-05 1 1  ON 42
uuS_13 -1.4495e-04 1 1  ON 43
uuS_14 -3.3647e-05 1 1  ON 44
uuS_15 2.1105e-07 1 1  ON 45
uuS_16 2.2222e-04 1 1  ON 46
uuS_17 -2.1590e-04 1 1  ON 47
uuS_18 5.7167e-05 1 1  ON 48
uuS_19 -1.6349e-05 1 1  ON 49
uuS_20 2.7224e-05 1 1  ON 50
uuS_21 3.4281e-07 1 1  ON 51
uuS_22 1.0721e-06 1 1  ON 52
uuS_23 -8.9376e-06 1 1  ON 53
uuS_24 4.5618e-07 1 1  ON 54
uuS_25 -1.7767e-07 1 1  ON 55
udS_0 -5.2802e-05 1 1  ON 56
udS_1 1.6919e-04 1 1  ON 57
udS_2 8.9623e-05 1 1  ON 58
udS_3 1.0886e-04 1 1  ON 59
udS_4 1.2001e-05 1 1  ON 60
udS_5 -6.9146e-06 1 1  ON 61
udS_6 4.0955e-04 1 1  ON 62
udS_7 2.9805e-05 1 1  ON 63
udS_8 -8.2637e-05 1 1  ON 64
udS_9 -3.0892e-04 1 1  ON 65
udS_10 5.0036e-05 1 1  ON 66
udS_11 -2.0887e-05 1 1  ON 67
udS_12 4.5185e-05 1 1  ON 68
udS_13 -1.4102e-04 1 1  ON 69
udS_14 -5.1095e-05 1 1  ON 70
udS_15 3.6813e-07 1 1  ON 71
udS_16 4.5964e-04 1 1  ON 72
udS_17 -2.6355e-04 1 1  ON 73
udS_18 3.6314e-05 1 1  ON 74
udS_19 -2.2247e-05 1 1  ON 75
udS_20 -1.3594e-05 1 1  ON 76
udS_21 1.3453e-05 1 1  ON 77
udS_22 1.7802e-07 1 1  ON 78
udS_23 8.7819e-07 1 1  ON 79
udS_24 -3.0224e-06 1 1  ON 80
udS_25 2.9525e-07 1 1  ON 81
  </optVariables>
   Restore the number of walkers to 1, removing 0 walkers.
</opt>
</optimization-report>
  QMC Execution time = 5.3270e+00 secs 
  Reusing QMCFixedSampleLinearOptimize
 Using QMCCostFunction::QMCCostFunction

=========================================================
  Start QMCFixedSampleLinearOptimize
  File Root S.log.s009 append = no 
=========================================================
  Skip QMCDriver::putQMCInfo 
  Resetting Properties of the walkers 1 x 13

=========================================================
  Start VMC
  File Root S.log.s009 append = no 
=========================================================
Using existing walkers 
  Resetting Properties of the walkers 1 x 13

<vmc function="put">
  qmc_counter=8  my_counter=8
  time step      = 1.5000e-01
  blocks         = 300
  steps          = 2
  substeps       = 5
  current        = 0
  target samples = 5.1200e+05
  walkers/mpi    = 1

  stepsbetweensamples = 1
<parameter name="blocks" condition="int">300</parameter>
<parameter name="blocks_between_recompute" condition="int">0</parameter>
<parameter name="check_properties" condition="int">100</parameter>
<parameter name="checkproperties" condition="int">100</parameter>
<parameter name="current" condition="int">0</parameter>
<parameter name="dmcwalkersperthread" condition="real">5.0000e+02</parameter>
<parameter name="maxcpusecs" condition="real">3.6000e+05</parameter>
<parameter name="record_configs" condition="int">0</parameter>
<parameter name="record_walkers" condition="int">1</parameter>
<parameter name="recordconfigs" condition="int">0</parameter>
<parameter name="recordwalkers" condition="int">1</parameter>
<parameter name="rewind" condition="int">0</parameter>
<parameter name="samples" condition="real">5.1200e+05</parameter>
<parameter name="samplesperthread" condition="real">5.0000e+02</parameter>
<parameter name="steps" condition="int">2</parameter>
<parameter name="stepsbetweensamples" condition="int">1</parameter>
<parameter name="store_configs" condition="int">0</parameter>
<parameter name="storeconfigs" condition="int">0</parameter>
<parameter name="sub_steps" condition="int">5</parameter>
<parameter name="substeps" condition="int">5</parameter>
<parameter name="tau" condition="au">1.5000e-01</parameter>
<parameter name="time_step" condition="au">1.5000e-01</parameter>
<parameter name="timestep" condition="au">1.5000e-01</parameter>
<parameter name="use_drift" condition="string">no</parameter>
<parameter name="usedrift" condition="string">no</parameter>
<parameter name="walkers" condition="int">1</parameter>
<parameter name="warmup_steps" condition="int">0</parameter>
<parameter name="warmupsteps" condition="int">0</parameter>
  DumpConfig==false Nothing (configurations, state) will be saved.
  Walker Samples are dumped every 1 steps.
</vmc>
  EstimatorManagerBase::add replace LocalEnergy estimator.
  EstimatorManagerBase::add replace LocalEnergy estimator.
<optimization-report>
<vmc stage="main" blocks="300">
  Cannot make clones again. Use existing 1 clones
  Initial partition of walkers 0 1 
  Using Particle by Particle moves
  Walker moves without drift
  Total Sample Size   =512000
  Walker distribution on root = 0 1 
  Using Locality Approximation
===== Memory Usage after the buffer registration =====
Available memory on node 0, free + buffers : 84178 MB
Memory footprint by rank 0 on node 0       : 109 MB
==================================================
====================================================
  SimpleFixedNodeBranch::finalize after a VMC block
    QMC counter        = 9
    time step          = 0.15
    reference energy   = -10.0792
    reference variance = 0.231561
====================================================
  Execution time = 3.0952e+00
</vmc>
<opt stage="setup">
  <log>
   Reading configurations from h5FileRoot S.log.s009
  QMCCostFunction is created with 1 threads.
  Using Nonlocal PP in Opt: NonLocalECP
   Number of samples loaded to each thread : 500 
  VMC Eavg = -1.0086e+01
  VMC Evar = 5.1180e-02
  Total weights = 5.1200e+05
  Execution time = 1.1402e+00
  </log>
</opt>
<opt stage="main" walkers="512000">
  <log>

*****************************************
Building overlap and Hamiltonian matrices
*****************************************

Among totally 82 optimized parameters, largest LM parameter change : 1.3671e+02 at parameter 20

******************************************************************************
Init Cost =  -9.5789e+00    New Cost =  -6.1587e+02  Delta Cost =  -6.0629e+02
******************************************************************************

The new set of parameters is not valid. Revert to the old set!

*****************************************************************************
Applying the update for shift_i =   1.0000e-02     and shift_s =   1.5625e-02
*****************************************************************************
  Execution time = 4.5798e+00
  </log>
  <optVariables href="S.log.s009.opt.xml">
uu_0 4.2308e-01 1 1  ON 0
uu_1 2.4492e-01 1 1  ON 1
uu_2 1.2671e-01 1 1  ON 2
uu_3 4.0194e-02 1 1  ON 3
uu_4 -1.4950e-02 1 1  ON 4
uu_5 -6.8075e-02 1 1  ON 5
uu_6 -1.1057e-01 1 1  ON 6
uu_7 -1.3347e-01 1 1  ON 7
uu_8 -1.3545e-01 1 1  ON 8
uu_9 -1.1411e-01 1 1  ON 9
ud_0 8.2586e-01 1 1  ON 10
ud_1 4.7873e-01 1 1  ON 11
ud_2 2.5908e-01 1 1  ON 12
ud_3 1.1287e-01 1 1  ON 13
ud_4 2.8225e-02 1 1  ON 14
ud_5 -4.3011e-02 1 1  ON 15
ud_6 -9.6022e-02 1 1  ON 16
ud_7 -1.3800e-01 1 1  ON 17
ud_8 -1.5527e-01 1 1  ON 18
ud_9 -1.4845e-01 1 1  ON 19
eS_0 -9.9624e-01 1 1  ON 20
eS_1 -9.1606e-01 1 1  ON 21
eS_2 -6.7291e-01 1 1  ON 22
eS_3 -1.9968e-01 1 1  ON 23
eS_4 2.5612e-01 1 1  ON 24
eS_5 4.1462e-01 1 1  ON 25
eS_6 5.9062e-01 1 1  ON 26
eS_7 6.7453e-01 1 1  ON 27
eS_8 6.0370e-01 1 1  ON 28
eS_9 2.5348e-01 1 1  ON 29
uuS_0 -3.9892e-05 1 1  ON 30
uuS_1 6.9995e-05 1 1  ON 31
uuS_2 3.1112e-05 1 1  ON 32
uuS_3 7.9307e-05 1 1  ON 33
uuS_4 9.7431e-06 1 1  ON 34
uuS_5 7.0520e-07 1 1  ON 35
uuS_6 1.6830e-04 1 1  ON 36
uuS_7 5.5500e-05 1 1  ON 37
uuS_8 -7.4027e-05 1 1  ON 38
uuS_9 -1.0742e-04 1 1  ON 39
uuS_10 3.8575e-05 1 1  ON 40
uuS_11 -2.1298e-05 1 1  ON 41
uuS_12 3.0616e-05 1 1  ON 42
uuS_13 -1.4495e-04 1 1  ON 43
uuS_14 -3.3647e-05 1 1  ON 44
uuS_15 2.1105e-07 1 1  ON 45
uuS_16 2.2222e-04 1 1  ON 46
uuS_17 -2.1590e-04 1 1  ON 47
uuS_18 5.7167e-05 1 1  ON 48
uuS_19 -1.6349e-05 1 1  ON 49
uuS_20 2.7224e-05 1 1  ON 50
uuS_21 3.4281e-07 1 1  ON 51
uuS_22 1.0721e-06 1 1  ON 52
uuS_23 -8.9376e-06 1 1  ON 53
uuS_24 4.5618e-07 1 1  ON 54
uuS_25 -1.7767e-07 1 1  ON 55
udS_0 -5.2802e-05 1 1  ON 56
udS_1 1.6919e-04 1 1  ON 57
udS_2 8.9623e-05 1 1  ON 58
udS_3 1.0886e-04 1 1  ON 59
udS_4 1.2001e-05 1 1  ON 60
udS_5 -6.9146e-06 1 1  ON 61
udS_6 4.0955e-04 1 1  ON 62
udS_7 2.9805e-05 1 1  ON 63
udS_8 -8.2637e-05 1 1  ON 64
udS_9 -3.0892e-04 1 1  ON 65
udS_10 5.0036e-05 1 1  ON 66
udS_11 -2.0887e-05 1 1  ON 67
udS_12 4.5185e-05 1 1  ON 68
udS_13 -1.4102e-04 1 1  ON 69
udS_14 -5.1095e-05 1 1  ON 70
udS_15 3.6813e-07 1 1  ON 71
udS_16 4.5964e-04 1 1  ON 72
udS_17 -2.6355e-04 1 1  ON 73
udS_18 3.6314e-05 1 1  ON 74
udS_19 -2.2247e-05 1 1  ON 75
udS_20 -1.3594e-05 1 1  ON 76
udS_21 1.3453e-05 1 1  ON 77
udS_22 1.7802e-07 1 1  ON 78
udS_23 8.7819e-07 1 1  ON 79
udS_24 -3.0224e-06 1 1  ON 80
udS_25 2.9525e-07 1 1  ON 81
  </optVariables>
   Restore the number of walkers to 1, removing 0 walkers.
</opt>
</optimization-report>
  QMC Execution time = 4.5938e+00 secs 
  Reusing QMCFixedSampleLinearOptimize
 Using QMCCostFunction::QMCCostFunction

=========================================================
  Start QMCFixedSampleLinearOptimize
  File Root S.log.s010 append = no 
=========================================================
  Skip QMCDriver::putQMCInfo 
  Resetting Properties of the walkers 1 x 13

=========================================================
  Start VMC
  File Root S.log.s010 append = no 
=========================================================
Using existing walkers 
  Resetting Properties of the walkers 1 x 13

<vmc function="put">
  qmc_counter=9  my_counter=9
  time step      = 1.5000e-01
  blocks         = 300
  steps          = 2
  substeps       = 5
  current        = 0
  target samples = 5.1200e+05
  walkers/mpi    = 1

  stepsbetweensamples = 1
[...]
    time step          = 0.15
    reference energy   = -10.0977
    reference variance = 0.0688027
====================================================
  Execution time = 3.1139e+00
</vmc>
<opt stage="setup">
  <log>
   Reading configurations from h5FileRoot S.log.s020
  QMCCostFunction is created with 1 threads.
  Using Nonlocal PP in Opt: NonLocalECP
   Number of samples loaded to each thread : 500 
  VMC Eavg = -1.0086e+01
  VMC Evar = 5.2667e-02
  Total weights = 5.1200e+05
  Execution time = 1.1637e+00
  </log>
</opt>
<opt stage="main" walkers="512000">
  <log>

*****************************************
Building overlap and Hamiltonian matrices
*****************************************

Among totally 82 optimized parameters, largest LM parameter change : 1.1235e-02 at parameter 29

******************************************************************************
Init Cost =  -9.5794e+00    New Cost =  -9.5794e+00  Delta Cost =  -1.6195e-05
******************************************************************************

The new set of parameters is valid. Updating the trial wave function!

*****************************************************************************
Applying the update for shift_i =   1.0000e-02     and shift_s =   3.9062e-03
*****************************************************************************
  Execution time = 5.3412e+00
  </log>
  <optVariables href="S.log.s020.opt.xml">
uu_0 4.2375e-01 1 1  ON 0
uu_1 2.4921e-01 1 1  ON 1
uu_2 1.3584e-01 1 1  ON 2
uu_3 5.1940e-02 1 1  ON 3
uu_4 -1.9732e-03 1 1  ON 4
uu_5 -5.4978e-02 1 1  ON 5
uu_6 -9.8367e-02 1 1  ON 6
uu_7 -1.2201e-01 1 1  ON 7
uu_8 -1.2849e-01 1 1  ON 8
uu_9 -1.0977e-01 1 1  ON 9
ud_0 8.6648e-01 1 1  ON 10
ud_1 5.1864e-01 1 1  ON 11
ud_2 2.9724e-01 1 1  ON 12
ud_3 1.4875e-01 1 1  ON 13
ud_4 6.2667e-02 1 1  ON 14
ud_5 -7.9458e-03 1 1  ON 15
ud_6 -6.1473e-02 1 1  ON 16
ud_7 -1.0443e-01 1 1  ON 17
ud_8 -1.2547e-01 1 1  ON 18
ud_9 -1.2396e-01 1 1  ON 19
eS_0 -1.0165e+00 1 1  ON 20
eS_1 -9.6275e-01 1 1  ON 21
eS_2 -7.2671e-01 1 1  ON 22
eS_3 -2.3941e-01 1 1  ON 23
eS_4 2.3298e-01 1 1  ON 24
eS_5 4.0779e-01 1 1  ON 25
eS_6 5.8501e-01 1 1  ON 26
eS_7 6.8412e-01 1 1  ON 27
eS_8 6.4968e-01 1 1  ON 28
eS_9 3.5443e-01 1 1  ON 29
uuS_0 -4.0158e-05 1 1  ON 30
uuS_1 9.6261e-05 1 1  ON 31
uuS_2 4.2728e-05 1 1  ON 32
uuS_3 6.7569e-05 1 1  ON 33
uuS_4 4.6645e-06 1 1  ON 34
uuS_5 -3.0215e-07 1 1  ON 35
uuS_6 2.1666e-04 1 1  ON 36
uuS_7 3.3998e-05 1 1  ON 37
uuS_8 -6.1470e-05 1 1  ON 38
uuS_9 -1.3944e-04 1 1  ON 39
uuS_10 2.7191e-05 1 1  ON 40
uuS_11 -1.6234e-05 1 1  ON 41
uuS_12 2.5871e-05 1 1  ON 42
uuS_13 -1.2687e-04 1 1  ON 43
uuS_14 -3.1439e-05 1 1  ON 44
uuS_15 4.1765e-07 1 1  ON 45
uuS_16 2.5492e-04 1 1  ON 46
uuS_17 -2.0240e-04 1 1  ON 47
uuS_18 4.9121e-05 1 1  ON 48
uuS_19 -1.3757e-05 1 1  ON 49
uuS_20 1.5006e-05 1 1  ON 50
uuS_21 1.6019e-06 1 1  ON 51
uuS_22 7.4873e-07 1 1  ON 52
uuS_23 -5.5265e-06 1 1  ON 53
uuS_24 -3.9423e-08 1 1  ON 54
uuS_25 -1.0090e-07 1 1  ON 55
udS_0 -5.1396e-05 1 1  ON 56
udS_1 1.6020e-04 1 1  ON 57
udS_2 9.2428e-05 1 1  ON 58
udS_3 1.1472e-04 1 1  ON 59
udS_4 1.3057e-05 1 1  ON 60
udS_5 -5.7923e-06 1 1  ON 61
udS_6 3.9617e-04 1 1  ON 62
udS_7 4.7912e-05 1 1  ON 63
udS_8 -7.7227e-05 1 1  ON 64
udS_9 -3.0734e-04 1 1  ON 65
udS_10 5.6561e-05 1 1  ON 66
udS_11 -3.7782e-05 1 1  ON 67
udS_12 4.5618e-05 1 1  ON 68
udS_13 -1.4582e-04 1 1  ON 69
udS_14 -4.9903e-05 1 1  ON 70
udS_15 2.1625e-07 1 1  ON 71
udS_16 4.6656e-04 1 1  ON 72
udS_17 -2.7310e-04 1 1  ON 73
udS_18 4.9284e-05 1 1  ON 74
udS_19 -2.3978e-05 1 1  ON 75
udS_20 -1.3809e-05 1 1  ON 76
udS_21 1.2009e-05 1 1  ON 77
udS_22 4.7741e-07 1 1  ON 78
udS_23 9.6161e-07 1 1  ON 79
udS_24 -2.8610e-06 1 1  ON 80
udS_25 2.4741e-07 1 1  ON 81
  </optVariables>
   Restore the number of walkers to 1, removing 0 walkers.
</opt>
</optimization-report>
  QMC Execution time = 5.3547e+00 secs 

=========================================================
  Start VMC
  File Root S.log.s021 append = no 
=========================================================
  Using the current 1 walkers.
  Total number of walkers: 1.0240e+03
  Total weight: 1.0240e+03
  Resetting Properties of the walkers 1 x 13

<vmc function="put">
  qmc_counter=0  my_counter=0
  time step      = 1.5000e-01
  blocks         = 200
  steps          = 1
  substeps       = 30
  current        = 0
  target samples = 4.0960e+03
  walkers/mpi    = 1

  stepsbetweensamples = 50
<parameter name="blocks" condition="int">200</parameter>
<parameter name="blocks_between_recompute" condition="int">0</parameter>
<parameter name="check_properties" condition="int">100</parameter>
<parameter name="checkproperties" condition="int">100</parameter>
<parameter name="current" condition="int">0</parameter>
<parameter name="dmcwalkersperthread" condition="real">4.0000e+00</parameter>
<parameter name="maxcpusecs" condition="real">3.6000e+05</parameter>
<parameter name="record_configs" condition="int">0</parameter>
<parameter name="record_walkers" condition="int">50</parameter>
<parameter name="recordconfigs" condition="int">0</parameter>
<parameter name="recordwalkers" condition="int">50</parameter>
<parameter name="rewind" condition="int">0</parameter>
<parameter name="samples" condition="real">4.0960e+03</parameter>
<parameter name="samplesperthread" condition="real">4.0000e+00</parameter>
<parameter name="steps" condition="int">1</parameter>
<parameter name="stepsbetweensamples" condition="int">50</parameter>
<parameter name="store_configs" condition="int">0</parameter>
<parameter name="storeconfigs" condition="int">0</parameter>
<parameter name="sub_steps" condition="int">30</parameter>
<parameter name="substeps" condition="int">30</parameter>
<parameter name="tau" condition="au">1.5000e-01</parameter>
<parameter name="time_step" condition="au">1.5000e-01</parameter>
<parameter name="timestep" condition="au">1.5000e-01</parameter>
<parameter name="use_drift" condition="string">no</parameter>
<parameter name="usedrift" condition="string">no</parameter>
<parameter name="walkers" condition="int">1</parameter>
<parameter name="warmup_steps" condition="int">100</parameter>
<parameter name="warmupsteps" condition="int">100</parameter>
  DumpConfig==false Nothing (configurations, state) will be saved.
  Walker Samples are dumped every 50 steps.
</vmc>
  EstimatorManagerBase::add replace LocalEnergy estimator.
  Cannot make clones again. Use existing 1 clones
  Initial partition of walkers 0 1 

  Using Particle by Particle moves
  Walker moves without drift
  Total Sample Size   =4096
  Walker distribution on root = 0 1 
  Using Locality Approximation
===== Memory Usage after the buffer registration =====
Available memory on node 0, free + buffers : 84136 MB
Memory footprint by rank 0 on node 0       : 136 MB
==================================================
  Anonymous Buffer size per walker : 2336 Bytes.
MEMORY increase 0 MB VMC::resetRun
====================================================
  SimpleFixedNodeBranch::finalize after a VMC block
    QMC counter        = 21
    time step          = 0.15
    reference energy   = -10.0836
    reference variance = 0.0531902
====================================================
  QMC Execution time = 3.0236e+00 secs 

=========================================================
  Start DMC
  File Root S.log.s022 append = no 
=========================================================
Using existing walkers 
  Resetting Properties of the walkers 1 x 13
  EstimatorManagerBase::add replace LocalEnergy estimator.
  Cannot make clones again. Use existing 1 clones
  Total number of walkers: 4.0960e+03
  Total weight: 4.0960e+03
  Creating WalkerController: target  number of walkers = 4096
  Using WalkerControlMPI for dynamic population control.
  START ALL OVER 
  WalkerControlBase parameters 
    maxCopy = 2
    Max Walkers per MPI rank 9
    Min Walkers per MPI rank 1
    Using non-blocking send/recv
  QMC counter      = 22
  time step        = 2.0000e-02
  effective time step = 2.0000e-02
  trial energy     = -1.0084e+01
  reference energy = -1.0084e+01
  Feedback = 1.0000e+00
  reference variance = 5.3190e-02
  target walkers = 4096
  branching cutoff scheme classic
  branch cutoff = 5.0000e+01 7.5000e+01
  Max and minimum walkers per node= 9 1
  QMC Status (BranchMode) = 0000001101
  Initial partition of walkers on a node: 0 4 
  Updates by particle-by-particle moves
  DMC moves are rejected when a node crossing is detected
  Using Non-local T-moves v0, M. Casula, PRB 74, 161102(R) (2006)
===== Memory Usage after the buffer registration =====
Available memory on node 0, free + buffers : 84136 MB
Memory footprint by rank 0 on node 0       : 136 MB
==================================================
SimpleFixedNodeBranch::checkParameters 
  Average Energy of a population  = -10.0915
  Energy Variance = 0.197587

  Fluctuating population
  Persistent walkers are killed after 1 MC sweeps
  BranchInterval = 1
  Steps per block = 50
  Number of blocks = 70

  DMC Engine Initialization = 4.7107e-02 secs 

 Warmup is completed after 100

  TauEff     = 1.9863e-02
 TauEff/Tau = 9.9314e-01
  Etrial     = -1.0106e+01
 Running average of energy = -1.0090e+01
                  Variance = 5.7523e-02
branch cutoff = 1.0000e+01 1.5000e+01
====================================================
  SimpleFixedNodeBranch::finalize after a DMC block
    QMC counter                   = 22
    time step                     = 0.02
    effective time step           = 0.0198627
    trial energy                  = -10.0929
    reference energy              = -10.0925
    reference variance            = 0.0575228
    target walkers                = 4096
    branch cutoff                 = 10 15
    Max and minimum walkers per node= 9 1
    Feedback                      = 1
    QMC Status (BranchMode)       = 0000001111
====================================================
  QMC Execution time = 5.3223e+01 secs 
  Reusing DMC
BRANCH resetRun
 SimpleFixedNodeBranch::resetRun detected changes in <parameter>'s 
 BranchMode : 0000001111 0000001111
  WalkerControlBase parameters 
    maxCopy = 2
    Max Walkers per MPI rank 9
    Min Walkers per MPI rank 1
    Using non-blocking send/recv
 iParam (old):                  0                 1                22              4096                 9                 1                 1                 0
 iParam (new):                100                 1                22              4096                 9                 1                 1                 0
 vParam (old):   2.0000000000e-02  1.9862748124e-02 -1.0092944120e+01 -1.0092455958e+01 -1.0094362983e+01  1.5000000000e+01  1.0000000000e+01  2.0000000000e-01  5.7522830547e-02 -3.4324444621e+04  3.4010000000e+03  1.0000000000e+00  1.0000000000e+01  1.0000000000e+00  1.0000000000e+00  1.0000000000e+00  1.0000000000e+00
 vParam (new):   1.0000000000e-02  1.9862748124e-02 -1.0092944120e+01 -1.0092455958e+01 -1.0094362983e+01  1.5000000000e+01  1.0000000000e+01  2.0000000000e-01  5.7522830547e-02 -3.4324444621e+04  3.4010000000e+03  1.0000000000e+00  1.0000000000e+01  1.0000000000e+00  1.0000000000e+00  1.0000000000e+00  1.0000000000e+00

 Using branching cutoff scheme classic
SimpleFixedNodeBranch::checkParameters 
  Average Energy of a population  = -10.0951
  Energy Variance = 0.0532387

  Using Non-local T-moves v0, M. Casula, PRB 74, 161102(R) (2006)
===== Memory Usage after the buffer registration =====
Available memory on node 0, free + buffers : 84129 MB
Memory footprint by rank 0 on node 0       : 138 MB
==================================================

=========================================================
  Start DMC
  File Root S.log.s023 append = no 
=========================================================
Using existing walkers 
  Resetting Properties of the walkers 1 x 13
  EstimatorManagerBase::add replace LocalEnergy estimator.
  Cannot make clones again. Use existing 1 clones
SimpleFixedNodeBranch::checkParameters 
  Average Energy of a population  = -10.0977
  Energy Variance = 0.0510872

  Fluctuating population
  Persistent walkers are killed after 1 MC sweeps
  BranchInterval = 1
  Steps per block = 100
  Number of blocks = 80

  DMC Engine Initialization = 2.9277801514e-04 secs 

 Warmup is completed after 100

  TauEff     = 9.9741419481e-03
 TauEff/Tau = 9.9741419481e-01
  Etrial     = -9.9946498995e+00
 Running average of energy = -1.0092242881e+01
                  Variance = 5.5493213371e-02
branch cutoff = 1.0000000000e+01 1.5000000000e+01
====================================================
  SimpleFixedNodeBranch::finalize after a DMC block
    QMC counter                   = 23
    time step                     = 0.01
    effective time step           = 0.00997458
    trial energy                  = -10.0919
    reference energy              = -10.0921
    reference variance            = 0.0554932
    target walkers                = 4096
    branch cutoff                 = 10 15
    Max and minimum walkers per node= 9 1
    Feedback                      = 1
    QMC Status (BranchMode)       = 0000001111
====================================================
  QMC Execution time = 1.2134e+02 secs 
  Reusing DMC
BRANCH resetRun
 SimpleFixedNodeBranch::resetRun detected changes in <parameter>'s 
 BranchMode : 0000001111 0000001111
  WalkerControlBase parameters 
    maxCopy = 2
    Max Walkers per MPI rank 9
    Min Walkers per MPI rank 1
    Using non-blocking send/recv
 iParam (old):                  0                 1                23              4096                 9                 1                 1                 0
 iParam (new):                200                 1                23              4096                 9                 1                 1                 0
 vParam (old):   1.0000000000e-02  9.9745846195e-03 -1.0091865576e+01 -1.0092109747e+01 -1.0095307709e+01  1.5000000000e+01  1.0000000000e+01  2.0000000000e-01  5.5493213371e-02 -7.9737762308e+04  7.9010000000e+03  1.0000000000e+00  1.0000000000e+01  1.0000000000e+00  1.0000000000e+00  1.0000000000e+00  1.0000000000e+00
 vParam (new):   5.0000000000e-03  9.9745846195e-03 -1.0091865576e+01 -1.0092109747e+01 -1.0095307709e+01  1.5000000000e+01  1.0000000000e+01  2.0000000000e-01  5.5493213371e-02 -7.9737762308e+04  7.9010000000e+03  1.0000000000e+00  1.0000000000e+01  1.0000000000e+00  1.0000000000e+00  1.0000000000e+00  1.0000000000e+00

 Using branching cutoff scheme classic
SimpleFixedNodeBranch::checkParameters 
  Average Energy of a population  = -10.0954
  Energy Variance = 0.0466463

  Using Non-local T-moves v0, M. Casula, PRB 74, 161102(R) (2006)
===== Memory Usage after the buffer registration =====
Available memory on node 0, free + buffers : 84119 MB
Memory footprint by rank 0 on node 0       : 140 MB
==================================================

=========================================================
  Start DMC
  File Root S.log.s024 append = no 
=========================================================
Using existing walkers 
  Resetting Properties of the walkers 1 x 13
  EstimatorManagerBase::add replace LocalEnergy estimator.
  Cannot make clones again. Use existing 1 clones
SimpleFixedNodeBranch::checkParameters 
  Average Energy of a population  = -10.0952
  Energy Variance = 0.0465274

  Fluctuating population
  Persistent walkers are killed after 1 MC sweeps
  BranchInterval = 1
  Steps per block = 200
  Number of blocks = 90

  DMC Engine Initialization = 3.9160251617e-03 secs 

 Warmup is completed after 200

  TauEff     = 4.9953245617e-03
 TauEff/Tau = 9.9906491235e-01
  Etrial     = -1.0091688311e+01
 Running average of energy = -1.0093539278e+01
                  Variance = 4.9372809317e-02
branch cutoff = 1.0000000000e+01 1.5000000000e+01
====================================================
  SimpleFixedNodeBranch::finalize after a DMC block
    QMC counter                   = 24
    time step                     = 0.005
    effective time step           = 0.00499534
    trial energy                  = -10.0875
    reference energy              = -10.0922
    reference variance            = 0.0493728
    target walkers                = 4096
    branch cutoff                 = 10 15
    Max and minimum walkers per node= 9 1
    Feedback                      = 1
    QMC Status (BranchMode)       = 0000001111
====================================================
  QMC Execution time = 2.7292e+02 secs 
  Reusing DMC
BRANCH resetRun
 SimpleFixedNodeBranch::resetRun detected changes in <parameter>'s 
 BranchMode : 0000001111 0000001111
  WalkerControlBase parameters 
    maxCopy = 2
    Max Walkers per MPI rank 9
    Min Walkers per MPI rank 1
    Using non-blocking send/recv
 iParam (old):                  0                 1                24              4096                 9                 1                 1                 0
 iParam (new):                400                 1                24              4096                 9                 1                 1                 0
 vParam (old):   5.0000000000e-03  4.9953402067e-03 -1.0087515560e+01 -1.0092165024e+01 -1.0097309716e+01  1.5000000000e+01  1.0000000000e+01  2.0000000000e-01  4.9372809317e-02 -1.7965063473e+05  1.7801000000e+04  1.0000000000e+00  1.0000000000e+01  1.0000000000e+00  1.0000000000e+00  1.0000000000e+00  1.0000000000e+00
 vParam (new):   2.5000000000e-03  4.9953402067e-03 -1.0087515560e+01 -1.0092165024e+01 -1.0097309716e+01  1.5000000000e+01  1.0000000000e+01  2.0000000000e-01  4.9372809317e-02 -1.7965063473e+05  1.7801000000e+04  1.0000000000e+00  1.0000000000e+01  1.0000000000e+00  1.0000000000e+00  1.0000000000e+00  1.0000000000e+00

 Using branching cutoff scheme classic
SimpleFixedNodeBranch::checkParameters 
  Average Energy of a population  = -10.0973
  Energy Variance = 0.0509535

  Using Non-local T-moves v0, M. Casula, PRB 74, 161102(R) (2006)
===== Memory Usage after the buffer registration =====
Available memory on node 0, free + buffers : 84108 MB
Memory footprint by rank 0 on node 0       : 141 MB
==================================================

=========================================================
  Start DMC
  File Root S.log.s025 append = no 
=========================================================
Using existing walkers 
  Resetting Properties of the walkers 1 x 13
  EstimatorManagerBase::add replace LocalEnergy estimator.
  Cannot make clones again. Use existing 1 clones
SimpleFixedNodeBranch::checkParameters 
  Average Energy of a population  = -10.0975
  Energy Variance = 0.0537177

  Fluctuating population
  Persistent walkers are killed after 1 MC sweeps
  BranchInterval = 1
  Steps per block = 400
  Number of blocks = 100

  DMC Engine Initialization = 3.2670497894e-03 secs 

 Warmup is completed after 400

  TauEff     = 2.4991639013e-03
 TauEff/Tau = 9.9966556051e-01
  Etrial     = -1.0089729445e+01
 Running average of energy = -1.0092170465e+01
                  Variance = 5.2669984008e-02
branch cutoff = 1.0000000000e+01 1.5000000000e+01
====================================================
  SimpleFixedNodeBranch::finalize after a DMC block
    QMC counter                   = 25
    time step                     = 0.0025
    effective time step           = 0.00249915
    trial energy                  = -10.0921
    reference energy              = -10.0923
    reference variance            = 0.05267
    target walkers                = 4096
    branch cutoff                 = 10 15
    Max and minimum walkers per node= 9 1
    Feedback                      = 1
    QMC Status (BranchMode)       = 0000001111
====================================================
  QMC Execution time = 6.0892e+02 secs 
  Total Execution time = 1.1662e+03 secs

=========================================================
  A new xml input file : S.log.s025.cont.xml
TACC:  Shutdown complete. Exiting. 
