TACC:  Starting up job 2696977 
TACC:  Starting parallel tasks... 
  Input file(s): Co.log.qmc.in-wfj.xml 

=====================================================
                    QMCPACK 3.5.0 

       (c) Copyright 2003-  QMCPACK developers

                    Please cite:
 J. Kim et al. J. Phys. Cond. Mat. 30 195901 (2018)
      https://doi.org/10.1088/1361-648X/aab9c3

  Git branch: develop
  Last git commit: ca320f40410f5ef17c38db08d5c54848ef64bfe1
  Last git commit date: Tue Dec 18 15:37:17 2018 +0800
  Last git commit subject: Merge pull request #764 from Paul-St-Young/dat-h5
=====================================================
  Global options 

  MPI Nodes             = 1024
  MPI Nodes per group   = 1024
  MPI Group ID          = 0
  OMP 1st level threads = 1
  OMP nested threading disabled or only 1 thread on the 2nd level

  Precision used in this calculation, see definitions in the manual:
  Base precision      = double
  Full precision      = double

  Structure-of-arrays (SoA) optimization enabled

  Input XML = Co.log.qmc.in-wfj.xml

  Project = Co.log
  date    = 2018-12-27 16:42:51 CST
  host    = c411-064.stampede2.tacc.utexas.edu

 Random Number
 -------------
  Offset for the random number seeds based on time: 363

  Range of prime numbers to use as seeds over processors and threads = 2467-11519


 Particle Set 
 ------------
  Name: ion0
  All the species have the same mass 1
  Particle set size: 1

 Particle Set 
 ------------
  Name: e
  All the species have the same mass 1
  Particle set size: 17

 Wavefunction setup: 
 ------------------- 
  Name: psi0
  LCAO: SoaAtomicBasisSet<MultiQuintic,1>

  Distance table for similar particles (A-A):
    source/target: e
    Using structure-of-arrays (SoA) data layout
    Distance computations use open boundary conditions in 3D.


  Distance table for dissimilar particles (A-B):
    source: ion0  target: e
    Using structure-of-arrays (SoA) data layout
    Distance computations use open boundary conditions in 3D.

Reading BasisSet from HDF5 file:Co.log.h5
<input node="atomicBasisSet" name="gaussian" expandYlm="pyscf" angular="spherical" elementType="Co" normalized="no" type="Numerical" expM="0" />
  AO BasisSet for Co
   Spherical Harmonics contain (-1)^m factor
   Angular momentum m expanded as -l, ... ,l, with the exception of L=1 (1,-1,0)
   Grid is created by the input paremters in h5
    Using log grid ri = 1e-06 rf = 100 npts = 1001
   R(n,l,m,s) 0 0 0 0
   R(n,l,m,s) 1 0 0 0
   R(n,l,m,s) 2 0 0 0
   R(n,l,m,s) 3 0 0 0
   R(n,l,m,s) 4 0 0 0
   R(n,l,m,s) 5 0 0 0
   R(n,l,m,s) 6 0 0 0
   R(n,l,m,s) 7 0 0 0
   R(n,l,m,s) 8 1 0 0
   R(n,l,m,s) 9 1 0 0
   R(n,l,m,s) 10 1 0 0
   R(n,l,m,s) 11 1 0 0
   R(n,l,m,s) 12 1 0 0
   R(n,l,m,s) 13 1 0 0
   R(n,l,m,s) 14 1 0 0
   R(n,l,m,s) 15 1 0 0
   R(n,l,m,s) 16 2 0 0
   R(n,l,m,s) 17 2 0 0
   R(n,l,m,s) 18 2 0 0
   R(n,l,m,s) 19 2 0 0
   R(n,l,m,s) 20 2 0 0
   R(n,l,m,s) 21 2 0 0
   R(n,l,m,s) 22 2 0 0
   R(n,l,m,s) 23 3 0 0
   R(n,l,m,s) 24 3 0 0
   R(n,l,m,s) 25 3 0 0
   R(n,l,m,s) 26 3 0 0
   R(n,l,m,s) 27 4 0 0
   R(n,l,m,s) 28 4 0 0
   R(n,l,m,s) 29 4 0 0
   R(n,l,m,s) 30 5 0 0
   R(n,l,m,s) 31 5 0 0
Expanding Ylm as L=1 as (1,-1,0) and L>1 as -l,-l+1,...,l-1,l
   Adding 1 spherical orbitals
   Adding 1 spherical orbitals
   Adding 1 spherical orbitals
   Adding 1 spherical orbitals
   Adding 1 spherical orbitals
   Adding 1 spherical orbitals
   Adding 1 spherical orbitals
   Adding 1 spherical orbitals
   Adding 3 spherical orbitals
   Adding 3 spherical orbitals
   Adding 3 spherical orbitals
   Adding 3 spherical orbitals
   Adding 3 spherical orbitals
   Adding 3 spherical orbitals
   Adding 3 spherical orbitals
   Adding 3 spherical orbitals
   Adding 5 spherical orbitals
   Adding 5 spherical orbitals
   Adding 5 spherical orbitals
   Adding 5 spherical orbitals
   Adding 5 spherical orbitals
   Adding 5 spherical orbitals
   Adding 5 spherical orbitals
   Adding 7 spherical orbitals
   Adding 7 spherical orbitals
   Adding 7 spherical orbitals
   Adding 7 spherical orbitals
   Adding 9 spherical orbitals
   Adding 9 spherical orbitals
   Adding 9 spherical orbitals
   Adding 11 spherical orbitals
   Adding 11 spherical orbitals
   Maximum Angular Momentum  = 5
   Number of Radial functors = 32
   Basis size                = 144

  Created SPOSet builder named 'LCAOBSet' of type molecularorbital
Reuse SPOSetBuilder "LCAOBSet" type MolecularOrbital
  Building SPOSet '' with '' basis set.
Reuse SPOSetBuilder "LCAOBSet" type MolecularOrbital
  Building SPOSet '' with '' basis set.
  Creating a determinant updet group=0 sposet=updet
  Reusing a SPO set updet
Using DiracDeterminant 
Using rank-1 Sherman-Morrison Fahy update

  Creating a determinant downdet group=1 sposet=downdet
  Reusing a SPO set downdet
Using DiracDeterminant 
Using rank-1 Sherman-Morrison Fahy update

  FermionWF = SlaterDet
  RadialJastrowBuilder adds a functor with cusp = -0.25
 size = 10 parameters 
 cusp = -0.25
 rcut = 12.1
Parameter     Name      Value
uu_0 0.196288 1 1  ON 0
uu_1 0.0400464 1 1  ON 1
uu_2 -0.0161945 1 1  ON 2
uu_3 -0.0459979 1 1  ON 3
uu_4 -0.0624384 1 1  ON 4
uu_5 -0.0714415 1 1  ON 5
uu_6 -0.0682602 1 1  ON 6
uu_7 -0.0303094 1 1  ON 7
uu_8 0.0126751 1 1  ON 8
uu_9 0.0275216 1 1  ON 9
  RadialJastrowBuilder adds a functor with cusp = -0.5
 size = 10 parameters 
 cusp = -0.5
 rcut = 12.1
Parameter     Name      Value
ud_0 0.288272 1 1  ON 0
ud_1 0.126074 1 1  ON 1
ud_2 0.0500125 1 1  ON 2
ud_3 0.010588 1 1  ON 3
ud_4 -0.0302985 1 1  ON 4
ud_5 -0.064918 1 1  ON 5
ud_6 -0.0861957 1 1  ON 6
ud_7 -0.071981 1 1  ON 7
ud_8 -0.0335297 1 1  ON 8
ud_9 -0.0231843 1 1  ON 9
 size = 10 parameters 
 cusp = 0
 rcut = 12.1
Parameter     Name      Value
eCo_0 -2.45724 1 1  ON 0
eCo_1 -1.21426 1 1  ON 1
eCo_2 -0.375271 1 1  ON 2
eCo_3 0.190477 1 1  ON 3
eCo_4 0.679444 1 1  ON 4
eCo_5 1.05001 1 1  ON 5
eCo_6 1.14551 1 1  ON 6
eCo_7 0.800265 1 1  ON 7
eCo_8 0.196854 1 1  ON 8
eCo_9 0.00331265 1 1  ON 9
Expected 26 parameters, but found 0 in PolynomialFunctor3D.
Parameter     Name      Value
uuCo_0 0 1 1  ON 0
uuCo_1 0 1 1  ON 1
uuCo_2 0 1 1  ON 2
uuCo_3 0 1 1  ON 3
uuCo_4 0 1 1  ON 4
uuCo_5 0 1 1  ON 5
uuCo_6 0 1 1  ON 6
uuCo_7 0 1 1  ON 7
uuCo_8 0 1 1  ON 8
uuCo_9 0 1 1  ON 9
uuCo_10 0 1 1  ON 10
uuCo_11 0 1 1  ON 11
uuCo_12 0 1 1  ON 12
uuCo_13 0 1 1  ON 13
uuCo_14 0 1 1  ON 14
uuCo_15 0 1 1  ON 15
uuCo_16 0 1 1  ON 16
uuCo_17 0 1 1  ON 17
uuCo_18 0 1 1  ON 18
uuCo_19 0 1 1  ON 19
uuCo_20 0 1 1  ON 20
uuCo_21 0 1 1  ON 21
uuCo_22 0 1 1  ON 22
uuCo_23 0 1 1  ON 23
uuCo_24 0 1 1  ON 24
uuCo_25 0 1 1  ON 25
Expected 26 parameters, but found 0 in PolynomialFunctor3D.
Parameter     Name      Value
udCo_0 0 1 1  ON 0
udCo_1 0 1 1  ON 1
udCo_2 0 1 1  ON 2
udCo_3 0 1 1  ON 3
udCo_4 0 1 1  ON 4
udCo_5 0 1 1  ON 5
udCo_6 0 1 1  ON 6
udCo_7 0 1 1  ON 7
udCo_8 0 1 1  ON 8
udCo_9 0 1 1  ON 9
udCo_10 0 1 1  ON 10
udCo_11 0 1 1  ON 11
udCo_12 0 1 1  ON 12
udCo_13 0 1 1  ON 13
udCo_14 0 1 1  ON 14
udCo_15 0 1 1  ON 15
udCo_16 0 1 1  ON 16
udCo_17 0 1 1  ON 17
udCo_18 0 1 1  ON 18
udCo_19 0 1 1  ON 19
udCo_20 0 1 1  ON 20
udCo_21 0 1 1  ON 21
udCo_22 0 1 1  ON 22
udCo_23 0 1 1  ON 23
udCo_24 0 1 1  ON 24
udCo_25 0 1 1  ON 25
  QMCHamiltonian::addOperator Kinetic to H, physical Hamiltonian 
  QMCHamiltonian::addOperator ElecElec to H, physical Hamiltonian 
QMCHamiltonian::addOperatorType added type coulomb named ElecElec
  CoulombAA for ion0 is not created.  Number of particles == 1 and nonPeriodic

  ECPotential builder for pseudopotential 

  Adding pseudopotential for Co
   Linear grid  ri=0 rf=10 npts = 10001
    ECPComponentBuilder::buildSemiLocalAndLocal 
    Assuming Hartree unit
   Number of angular momentum channels 3
   Maximum angular momentum channel 2
   Creating a Linear Grid Rmax=1.19
  Using global grid with delta = 0.001
   Making L=2 a local potential with a radial cutoff of 9.999
    Non-local pseudopotential parameters
    Maximum angular mementum = 1
    Number of non-local channels = 2
       l(0)=0
       l(1)=1
    Cutoff radius = 1.19
    Spherical grids and weights: 
                        1                 0                 0       0.08333333333
                       -1   1.224646799e-16                 0       0.08333333333
             0.4472135955       0.894427191                 0       0.08333333333
            -0.4472135955      0.7236067977      0.5257311121       0.08333333333
             0.4472135955      0.2763932023      0.8506508084       0.08333333333
            -0.4472135955     -0.2763932023      0.8506508084       0.08333333333
             0.4472135955     -0.7236067977      0.5257311121       0.08333333333
            -0.4472135955      -0.894427191   1.095357397e-16       0.08333333333
             0.4472135955     -0.7236067977     -0.5257311121       0.08333333333
            -0.4472135955     -0.2763932023     -0.8506508084       0.08333333333
             0.4472135955      0.2763932023     -0.8506508084       0.08333333333
            -0.4472135955      0.7236067977     -0.5257311121       0.08333333333
    Maximum cutoff radius 1.19
  QMCHamiltonian::addOperator LocalECP to H, physical Hamiltonian 

  Using NonLocalECP potential 
    Maximum grid on a sphere for NonLocalECPotential: 12
  QMCHamiltonian::addOperator NonLocalECP to H, physical Hamiltonian 
QMCHamiltonian::addOperatorType added type pseudo named PseudoPot

  QMCHamiltonian::add2WalkerProperty added
    4 to P::PropertyList 
    0 to P::Collectables 
    starting Index of the observables in P::PropertyList = 9
ParticleSetPool::randomize 
<init source="ion0" target="e">
</init>
  Initialization Execution time = 0.6291 secs
=========================================================
 Summary of QMC systems 
=========================================================
ParticleSetPool has: 

  ParticleSet e : 0 10 17 

    17

    u  8.6839153352e-01 -1.7875134348e-01 -2.4745006161e+00
    u -2.2474644134e+00  2.7651719415e-01 -2.9752257599e+00
    u -2.9405628583e+00  3.9775359202e-01  1.1222902323e+00
    u  2.4817616632e+00 -7.1314424059e-01 -5.4074761426e-01
    u  3.9167085178e+00 -3.2764053785e+00 -1.8976947432e+00
    u -2.0425498500e+00  4.7213179841e+00 -1.2959773820e-01
    u -2.9785255010e+00  2.9494730616e+00 -1.0771130822e+00
    u  2.3302116851e+00 -9.2225648312e-01 -2.0575019071e-01
    u -5.2536055371e-01 -3.0112213509e+00 -2.4928227123e+00
    u -2.2701443961e-02 -4.7426746131e+00  5.8714100710e-01
    (... and 7 more particle positions ...)

  ParticleSet ion0 : 0 1 

    1

    Co  0.0000000000e+00  0.0000000000e+00  0.0000000000e+00

  Hamiltonian h0
  Kinetic         Kinetic energy
  ElecElec        CoulombAA source/target e

  LocalECP        LocalECPotential: ion0
  NonLocalECP     NonLocalECPotential: ion0

=========================================================
  Start VMC
  File Root Co.log.s000 append = no 
=========================================================
  Adding 1 walkers to 0 existing sets
  Total number of walkers: 1.0240000000e+03
  Total weight: 1.0240000000e+03
  Resetting Properties of the walkers 1 x 13

<vmc function="put">
  qmc_counter=0  my_counter=0
  time step      = 1.5000000000e-01
  blocks         = 200
  steps          = 1
  substeps       = 5
  current        = 0
  target samples = 1.0240000000e+03
  walkers/mpi    = 1

  stepsbetweensamples = 200
<parameter name="blocks" condition="int">200</parameter>
<parameter name="blocks_between_recompute" condition="int">0</parameter>
<parameter name="check_properties" condition="int">100</parameter>
<parameter name="checkproperties" condition="int">100</parameter>
<parameter name="current" condition="int">0</parameter>
<parameter name="dmcwalkersperthread" condition="real">1.0000000000e+00</parameter>
<parameter name="maxcpusecs" condition="real">3.6000000000e+05</parameter>
<parameter name="record_configs" condition="int">0</parameter>
<parameter name="record_walkers" condition="int">200</parameter>
<parameter name="recordconfigs" condition="int">0</parameter>
<parameter name="recordwalkers" condition="int">200</parameter>
<parameter name="rewind" condition="int">0</parameter>
<parameter name="samples" condition="real">1.0240000000e+03</parameter>
<parameter name="samplesperthread" condition="real">1.0000000000e+00</parameter>
<parameter name="steps" condition="int">1</parameter>
<parameter name="stepsbetweensamples" condition="int">200</parameter>
<parameter name="store_configs" condition="int">0</parameter>
<parameter name="storeconfigs" condition="int">0</parameter>
<parameter name="sub_steps" condition="int">5</parameter>
<parameter name="substeps" condition="int">5</parameter>
<parameter name="tau" condition="au">1.5000000000e-01</parameter>
<parameter name="time_step" condition="au">1.5000000000e-01</parameter>
<parameter name="timestep" condition="au">1.5000000000e-01</parameter>
<parameter name="use_drift" condition="string">no</parameter>
<parameter name="usedrift" condition="string">no</parameter>
<parameter name="walkers" condition="int">1</parameter>
<parameter name="warmup_steps" condition="int">100</parameter>
<parameter name="warmupsteps" condition="int">100</parameter>
  DumpConfig==false Nothing (configurations, state) will be saved.
  Walker Samples are dumped every 200 steps.
</vmc>
  Initial partition of walkers 0 1 

  Using Particle by Particle moves
  Walker moves without drift
  Total Sample Size   =1024
  Walker distribution on root = 0 1 
  Using Locality Approximation
===== Memory Usage after the buffer registration =====
Available memory on node 0, free + buffers : 84358 MB
Memory footprint by rank 0 on node 0       : 74 MB
==================================================
  Anonymous Buffer size per walker : 9568 Bytes.
MEMORY increase 0 MB VMC::resetRun
====================================================
  SimpleFixedNodeBranch::finalize after a VMC block
    QMC counter        = 0
    time step          = 0.15
    reference energy   = -145.008
    reference variance = 2.68817
====================================================
  QMC Execution time = 2.0319e+00 secs 
Loop execution max-interations = 20

=========================================================
  Start QMCFixedSampleLinearOptimize
  File Root Co.log.s001 append = no 
=========================================================
  Skip QMCDriver::putQMCInfo 
  Resetting Properties of the walkers 1 x 13

=========================================================
  Start VMC
  File Root Co.log.s001 append = no 
=========================================================
  Using the current 1 walkers.
  Total number of walkers: 1.0240e+03
  Total weight: 1.0240e+03
  Resetting Properties of the walkers 1 x 13

<vmc function="put">
  qmc_counter=0  my_counter=0
  time step      = 1.5000e-01
  blocks         = 500
  steps          = 1
  substeps       = 5
  current        = 0
  target samples = 5.1200e+05
  walkers/mpi    = 1

  stepsbetweensamples = 1
<parameter name="blocks" condition="int">500</parameter>
<parameter name="blocks_between_recompute" condition="int">0</parameter>
<parameter name="check_properties" condition="int">100</parameter>
<parameter name="checkproperties" condition="int">100</parameter>
<parameter name="current" condition="int">0</parameter>
<parameter name="dmcwalkersperthread" condition="real">5.0000e+02</parameter>
<parameter name="maxcpusecs" condition="real">3.6000e+05</parameter>
<parameter name="record_configs" condition="int">0</parameter>
<parameter name="record_walkers" condition="int">1</parameter>
<parameter name="recordconfigs" condition="int">0</parameter>
<parameter name="recordwalkers" condition="int">1</parameter>
<parameter name="rewind" condition="int">0</parameter>
<parameter name="samples" condition="real">5.1200e+05</parameter>
<parameter name="samplesperthread" condition="real">5.0000e+02</parameter>
<parameter name="steps" condition="int">1</parameter>
<parameter name="stepsbetweensamples" condition="int">1</parameter>
<parameter name="store_configs" condition="int">0</parameter>
<parameter name="storeconfigs" condition="int">0</parameter>
<parameter name="sub_steps" condition="int">5</parameter>
<parameter name="substeps" condition="int">5</parameter>
<parameter name="tau" condition="au">1.5000e-01</parameter>
<parameter name="time_step" condition="au">1.5000e-01</parameter>
<parameter name="timestep" condition="au">1.5000e-01</parameter>
<parameter name="use_drift" condition="string">no</parameter>
<parameter name="usedrift" condition="string">no</parameter>
<parameter name="walkers" condition="int">1</parameter>
<parameter name="warmup_steps" condition="int">0</parameter>
<parameter name="warmupsteps" condition="int">0</parameter>
  DumpConfig==false Nothing (configurations, state) will be saved.
  Walker Samples are dumped every 1 steps.
</vmc>
    Restarting, cummulative properties:
      energy     = -1.4501e+02
      variance   = 0.0000e+00
      r2accepted = 1.0000e-10
      r2proposed = 1.0000e-10
 Using QMCCostFunction::QMCCostFunction
  EstimatorManagerBase::add replace LocalEnergy estimator.
<optimization-report>
<vmc stage="main" blocks="500">
  Cannot make clones again. Use existing 1 clones
  Initial partition of walkers 0 1 

  Using Particle by Particle moves
  Walker moves without drift
  Total Sample Size   =512000
  Walker distribution on root = 0 1 
  Using Locality Approximation
===== Memory Usage after the buffer registration =====
Available memory on node 0, free + buffers : 84334 MB
Memory footprint by rank 0 on node 0       : 74 MB
==================================================
  Anonymous Buffer size per walker : 9568 Bytes.
MEMORY increase 0 MB VMC::resetRun
====================================================
  SimpleFixedNodeBranch::finalize after a VMC block
    QMC counter        = 1
    time step          = 0.15
    reference energy   = -144.867
    reference variance = 2.59859
====================================================
  Execution time = 4.7361e+00
</vmc>
<opt stage="setup">
  <log>
   Reading configurations from h5FileRoot Co.log.s001
  QMCCostFunction is created with 1 threads.
  Using Nonlocal PP in Opt: NonLocalECP
   Number of samples loaded to each thread : 500 
  VMC Eavg = -1.4498e+02
  VMC Evar = 2.9014e+00
  Total weights = 5.1200e+05
  Execution time = 3.0421e+00
  </log>
</opt>
<opt stage="main" walkers="512000">
  <log>

*****************************************
Building overlap and Hamiltonian matrices
*****************************************

Among totally 82 optimized parameters, largest LM parameter change : 1.0844e-01 at parameter 10

******************************************************************************
Init Cost =  -1.3759e+02    New Cost =  -1.3766e+02  Delta Cost =  -7.0990e-02
******************************************************************************

The new set of parameters is valid. Updating the trial wave function!

*****************************************************************************
Applying the update for shift_i =   1.0000e-02     and shift_s =   2.5000e-01
*****************************************************************************
  Execution time = 9.1197e+00
  </log>
  <optVariables href="Co.log.s001.opt.xml">
uu_0 1.9228e-01 1 1  ON 0
uu_1 3.7033e-02 1 1  ON 1
uu_2 -1.6607e-02 1 1  ON 2
uu_3 -3.3795e-02 1 1  ON 3
uu_4 -5.0609e-02 1 1  ON 4
uu_5 -7.2595e-02 1 1  ON 5
uu_6 -6.9360e-02 1 1  ON 6
uu_7 -3.7853e-02 1 1  ON 7
uu_8 1.5032e-02 1 1  ON 8
uu_9 2.4864e-02 1 1  ON 9
ud_0 3.9671e-01 1 1  ON 10
ud_1 1.4954e-01 1 1  ON 11
ud_2 3.7724e-02 1 1  ON 12
ud_3 -3.9048e-04 1 1  ON 13
ud_4 -3.5593e-02 1 1  ON 14
ud_5 -8.0821e-02 1 1  ON 15
ud_6 -8.8560e-02 1 1  ON 16
ud_7 -8.0032e-02 1 1  ON 17
ud_8 -5.0231e-02 1 1  ON 18
ud_9 -4.3858e-02 1 1  ON 19
eCo_0 -2.4878e+00 1 1  ON 20
eCo_1 -1.3116e+00 1 1  ON 21
eCo_2 -2.9325e-01 1 1  ON 22
eCo_3 2.3363e-01 1 1  ON 23
eCo_4 6.8491e-01 1 1  ON 24
eCo_5 1.0324e+00 1 1  ON 25
eCo_6 1.1361e+00 1 1  ON 26
eCo_7 8.1099e-01 1 1  ON 27
eCo_8 2.1249e-01 1 1  ON 28
eCo_9 3.5669e-03 1 1  ON 29
uuCo_0 1.9922e-06 1 1  ON 30
uuCo_1 1.3627e-06 1 1  ON 31
uuCo_2 -5.6153e-07 1 1  ON 32
uuCo_3 -2.9535e-06 1 1  ON 33
uuCo_4 -5.7882e-07 1 1  ON 34
uuCo_5 7.6386e-08 1 1  ON 35
uuCo_6 3.5172e-08 1 1  ON 36
uuCo_7 1.3262e-06 1 1  ON 37
uuCo_8 2.1116e-06 1 1  ON 38
uuCo_9 -2.0353e-06 1 1  ON 39
uuCo_10 -2.1397e-06 1 1  ON 40
uuCo_11 -8.2249e-07 1 1  ON 41
uuCo_12 -5.4709e-07 1 1  ON 42
uuCo_13 2.8567e-06 1 1  ON 43
uuCo_14 6.3543e-07 1 1  ON 44
uuCo_15 -1.2098e-08 1 1  ON 45
uuCo_16 1.3025e-06 1 1  ON 46
uuCo_17 2.9810e-06 1 1  ON 47
uuCo_18 -2.7200e-07 1 1  ON 48
uuCo_19 1.2589e-07 1 1  ON 49
uuCo_20 -5.3170e-07 1 1  ON 50
uuCo_21 -1.0581e-07 1 1  ON 51
uuCo_22 1.8400e-08 1 1  ON 52
uuCo_23 1.4437e-07 1 1  ON 53
uuCo_24 1.7095e-08 1 1  ON 54
uuCo_25 -7.4558e-09 1 1  ON 55
udCo_0 4.0440e-06 1 1  ON 56
udCo_1 5.3682e-06 1 1  ON 57
udCo_2 -6.9052e-07 1 1  ON 58
udCo_3 -5.7016e-06 1 1  ON 59
udCo_4 -1.1484e-06 1 1  ON 60
udCo_5 -5.2966e-07 1 1  ON 61
udCo_6 7.7987e-06 1 1  ON 62
udCo_7 -5.1668e-06 1 1  ON 63
udCo_8 1.3409e-06 1 1  ON 64
udCo_9 -8.6363e-06 1 1  ON 65
udCo_10 -4.6794e-06 1 1  ON 66
udCo_11 3.2506e-06 1 1  ON 67
udCo_12 -6.6180e-07 1 1  ON 68
udCo_13 6.6397e-06 1 1  ON 69
udCo_14 2.9573e-07 1 1  ON 70
udCo_15 2.6797e-08 1 1  ON 71
udCo_16 9.4798e-06 1 1  ON 72
udCo_17 5.6940e-06 1 1  ON 73
udCo_18 -4.0029e-06 1 1  ON 74
udCo_19 5.0685e-07 1 1  ON 75
udCo_20 -3.5624e-06 1 1  ON 76
udCo_21 6.0059e-07 1 1  ON 77
udCo_22 -8.1924e-08 1 1  ON 78
udCo_23 1.1086e-06 1 1  ON 79
udCo_24 -1.5498e-07 1 1  ON 80
udCo_25 1.9710e-08 1 1  ON 81
  </optVariables>
   Restore the number of walkers to 1, removing 0 walkers.
</opt>
</optimization-report>
  QMC Execution time = 9.1360e+00 secs 
  Reusing QMCFixedSampleLinearOptimize
 Using QMCCostFunction::QMCCostFunction

=========================================================
  Start QMCFixedSampleLinearOptimize
  File Root Co.log.s002 append = no 
=========================================================
  Skip QMCDriver::putQMCInfo 
  Resetting Properties of the walkers 1 x 13

=========================================================
  Start VMC
  File Root Co.log.s002 append = no 
=========================================================
Using existing walkers 
  Resetting Properties of the walkers 1 x 13

<vmc function="put">
  qmc_counter=1  my_counter=1
  time step      = 1.5000e-01
  blocks         = 500
  steps          = 1
  substeps       = 5
  current        = 0
  target samples = 5.1200e+05
  walkers/mpi    = 1

  stepsbetweensamples = 1
<parameter name="blocks" condition="int">500</parameter>
<parameter name="blocks_between_recompute" condition="int">0</parameter>
<parameter name="check_properties" condition="int">100</parameter>
<parameter name="checkproperties" condition="int">100</parameter>
<parameter name="current" condition="int">0</parameter>
<parameter name="dmcwalkersperthread" condition="real">5.0000e+02</parameter>
<parameter name="maxcpusecs" condition="real">3.6000e+05</parameter>
<parameter name="record_configs" condition="int">0</parameter>
<parameter name="record_walkers" condition="int">1</parameter>
<parameter name="recordconfigs" condition="int">0</parameter>
<parameter name="recordwalkers" condition="int">1</parameter>
<parameter name="rewind" condition="int">0</parameter>
<parameter name="samples" condition="real">5.1200e+05</parameter>
<parameter name="samplesperthread" condition="real">5.0000e+02</parameter>
<parameter name="steps" condition="int">1</parameter>
<parameter name="stepsbetweensamples" condition="int">1</parameter>
<parameter name="store_configs" condition="int">0</parameter>
<parameter name="storeconfigs" condition="int">0</parameter>
<parameter name="sub_steps" condition="int">5</parameter>
<parameter name="substeps" condition="int">5</parameter>
<parameter name="tau" condition="au">1.5000e-01</parameter>
<parameter name="time_step" condition="au">1.5000e-01</parameter>
<parameter name="timestep" condition="au">1.5000e-01</parameter>
<parameter name="use_drift" condition="string">no</parameter>
<parameter name="usedrift" condition="string">no</parameter>
<parameter name="walkers" condition="int">1</parameter>
<parameter name="warmup_steps" condition="int">0</parameter>
<parameter name="warmupsteps" condition="int">0</parameter>
  DumpConfig==false Nothing (configurations, state) will be saved.
  Walker Samples are dumped every 1 steps.
</vmc>
  EstimatorManagerBase::add replace LocalEnergy estimator.
  EstimatorManagerBase::add replace LocalEnergy estimator.
<optimization-report>
<vmc stage="main" blocks="500">
  Cannot make clones again. Use existing 1 clones
  Initial partition of walkers 0 1 
  Using Particle by Particle moves
  Walker moves without drift
  Total Sample Size   =512000
  Walker distribution on root = 0 1 
  Using Locality Approximation
===== Memory Usage after the buffer registration =====
Available memory on node 0, free + buffers : 83191 MB
Memory footprint by rank 0 on node 0       : 95 MB
==================================================
====================================================
  SimpleFixedNodeBranch::finalize after a VMC block
    QMC counter        = 2
    time step          = 0.15
    reference energy   = -145.036
    reference variance = 2.04344
====================================================
  Execution time = 4.8035e+00
</vmc>
<opt stage="setup">
  <log>
   Reading configurations from h5FileRoot Co.log.s002
  QMCCostFunction is created with 1 threads.
  Using Nonlocal PP in Opt: NonLocalECP
   Number of samples loaded to each thread : 500 
  VMC Eavg = -1.4502e+02
  VMC Evar = 2.0453e+00
  Total weights = 5.1200e+05
  Execution time = 3.0358e+00
  </log>
</opt>
<opt stage="main" walkers="512000">
  <log>

*****************************************
Building overlap and Hamiltonian matrices
*****************************************

Among totally 82 optimized parameters, largest LM parameter change : 6.6517e-02 at parameter 10

******************************************************************************
Init Cost =  -1.3767e+02    New Cost =  -1.3767e+02  Delta Cost =  -3.1428e-03
******************************************************************************

The new set of parameters is valid. Updating the trial wave function!

*****************************************************************************
Applying the update for shift_i =   1.0000e-02     and shift_s =   6.2500e-02
*****************************************************************************
  Execution time = 9.1517e+00
  </log>
  <optVariables href="Co.log.s002.opt.xml">
uu_0 1.9362e-01 1 1  ON 0
uu_1 4.2938e-02 1 1  ON 1
uu_2 -8.8802e-03 1 1  ON 2
uu_3 -3.3282e-02 1 1  ON 3
uu_4 -5.7150e-02 1 1  ON 4
uu_5 -7.7872e-02 1 1  ON 5
uu_6 -7.3106e-02 1 1  ON 6
uu_7 -4.0215e-02 1 1  ON 7
uu_8 2.3066e-02 1 1  ON 8
uu_9 3.6509e-02 1 1  ON 9
ud_0 4.6323e-01 1 1  ON 10
ud_1 1.8810e-01 1 1  ON 11
ud_2 4.9255e-02 1 1  ON 12
ud_3 -2.7977e-03 1 1  ON 13
ud_4 -4.3273e-02 1 1  ON 14
ud_5 -9.0481e-02 1 1  ON 15
ud_6 -9.7342e-02 1 1  ON 16
ud_7 -9.8996e-02 1 1  ON 17
ud_8 -6.9792e-02 1 1  ON 18
ud_9 -5.1965e-02 1 1  ON 19
eCo_0 -2.5295e+00 1 1  ON 20
eCo_1 -1.3682e+00 1 1  ON 21
eCo_2 -2.5740e-01 1 1  ON 22
eCo_3 2.9400e-01 1 1  ON 23
eCo_4 6.8987e-01 1 1  ON 24
eCo_5 1.0084e+00 1 1  ON 25
eCo_6 1.1268e+00 1 1  ON 26
eCo_7 8.2690e-01 1 1  ON 27
eCo_8 2.2786e-01 1 1  ON 28
eCo_9 6.5069e-03 1 1  ON 29
uuCo_0 2.1067e-06 1 1  ON 30
uuCo_1 1.6101e-06 1 1  ON 31
uuCo_2 -4.2557e-07 1 1  ON 32
uuCo_3 -3.2150e-06 1 1  ON 33
uuCo_4 -5.9047e-07 1 1  ON 34
uuCo_5 4.8050e-08 1 1  ON 35
uuCo_6 3.4689e-07 1 1  ON 36
uuCo_7 1.3434e-06 1 1  ON 37
uuCo_8 2.4775e-06 1 1  ON 38
uuCo_9 -2.4451e-06 1 1  ON 39
uuCo_10 -2.1817e-06 1 1  ON 40
uuCo_11 -1.1387e-06 1 1  ON 41
uuCo_12 -5.9153e-07 1 1  ON 42
uuCo_13 3.0180e-06 1 1  ON 43
uuCo_14 6.9585e-07 1 1  ON 44
uuCo_15 -1.4290e-08 1 1  ON 45
uuCo_16 1.8296e-06 1 1  ON 46
uuCo_17 3.1146e-06 1 1  ON 47
uuCo_18 -2.0582e-07 1 1  ON 48
uuCo_19 1.0969e-07 1 1  ON 49
uuCo_20 -7.1580e-07 1 1  ON 50
uuCo_21 -8.7810e-08 1 1  ON 51
uuCo_22 1.9504e-08 1 1  ON 52
uuCo_23 2.6595e-07 1 1  ON 53
uuCo_24 9.9624e-10 1 1  ON 54
uuCo_25 -6.1742e-09 1 1  ON 55
udCo_0 4.5933e-06 1 1  ON 56
udCo_1 5.4631e-06 1 1  ON 57
udCo_2 -1.0493e-06 1 1  ON 58
udCo_3 -6.2652e-06 1 1  ON 59
udCo_4 -1.1911e-06 1 1  ON 60
udCo_5 -8.4730e-07 1 1  ON 61
udCo_6 7.7734e-06 1 1  ON 62
udCo_7 -5.2909e-06 1 1  ON 63
udCo_8 1.0763e-06 1 1  ON 64
udCo_9 -8.8590e-06 1 1  ON 65
udCo_10 -5.0450e-06 1 1  ON 66
udCo_11 3.7869e-06 1 1  ON 67
udCo_12 -6.3098e-07 1 1  ON 68
udCo_13 6.8460e-06 1 1  ON 69
udCo_14 2.6085e-07 1 1  ON 70
udCo_15 2.6657e-08 1 1  ON 71
udCo_16 9.6971e-06 1 1  ON 72
udCo_17 6.1440e-06 1 1  ON 73
udCo_18 -4.4980e-06 1 1  ON 74
udCo_19 5.1739e-07 1 1  ON 75
udCo_20 -3.7941e-06 1 1  ON 76
udCo_21 6.7554e-07 1 1  ON 77
udCo_22 -8.5848e-08 1 1  ON 78
udCo_23 1.3472e-06 1 1  ON 79
udCo_24 -1.7720e-07 1 1  ON 80
udCo_25 2.1117e-08 1 1  ON 81
  </optVariables>
   Restore the number of walkers to 1, removing 0 walkers.
</opt>
</optimization-report>
  QMC Execution time = 9.1675e+00 secs 
  Reusing QMCFixedSampleLinearOptimize
 Using QMCCostFunction::QMCCostFunction

=========================================================
  Start QMCFixedSampleLinearOptimize
  File Root Co.log.s003 append = no 
=========================================================
  Skip QMCDriver::putQMCInfo 
  Resetting Properties of the walkers 1 x 13

=========================================================
  Start VMC
  File Root Co.log.s003 append = no 
=========================================================
Using existing walkers 
  Resetting Properties of the walkers 1 x 13

<vmc function="put">
  qmc_counter=2  my_counter=2
  time step      = 1.5000e-01
  blocks         = 500
  steps          = 1
  substeps       = 5
  current        = 0
  target samples = 5.1200e+05
  walkers/mpi    = 1

  stepsbetweensamples = 1
<parameter name="blocks" condition="int">500</parameter>
<parameter name="blocks_between_recompute" condition="int">0</parameter>
<parameter name="check_properties" condition="int">100</parameter>
<parameter name="checkproperties" condition="int">100</parameter>
<parameter name="current" condition="int">0</parameter>
<parameter name="dmcwalkersperthread" condition="real">5.0000e+02</parameter>
<parameter name="maxcpusecs" condition="real">3.6000e+05</parameter>
<parameter name="record_configs" condition="int">0</parameter>
<parameter name="record_walkers" condition="int">1</parameter>
<parameter name="recordconfigs" condition="int">0</parameter>
<parameter name="recordwalkers" condition="int">1</parameter>
<parameter name="rewind" condition="int">0</parameter>
<parameter name="samples" condition="real">5.1200e+05</parameter>
<parameter name="samplesperthread" condition="real">5.0000e+02</parameter>
<parameter name="steps" condition="int">1</parameter>
<parameter name="stepsbetweensamples" condition="int">1</parameter>
<parameter name="store_configs" condition="int">0</parameter>
<parameter name="storeconfigs" condition="int">0</parameter>
<parameter name="sub_steps" condition="int">5</parameter>
<parameter name="substeps" condition="int">5</parameter>
<parameter name="tau" condition="au">1.5000e-01</parameter>
<parameter name="time_step" condition="au">1.5000e-01</parameter>
<parameter name="timestep" condition="au">1.5000e-01</parameter>
<parameter name="use_drift" condition="string">no</parameter>
<parameter name="usedrift" condition="string">no</parameter>
<parameter name="walkers" condition="int">1</parameter>
<parameter name="warmup_steps" condition="int">0</parameter>
<parameter name="warmupsteps" condition="int">0</parameter>
  DumpConfig==false Nothing (configurations, state) will be saved.
  Walker Samples are dumped every 1 steps.
</vmc>
  EstimatorManagerBase::add replace LocalEnergy estimator.
  EstimatorManagerBase::add replace LocalEnergy estimator.
<optimization-report>
<vmc stage="main" blocks="500">
  Cannot make clones again. Use existing 1 clones
  Initial partition of walkers 0 1 
  Using Particle by Particle moves
  Walker moves without drift
  Total Sample Size   =512000
  Walker distribution on root = 0 1 
  Using Locality Approximation
===== Memory Usage after the buffer registration =====
Available memory on node 0, free + buffers : 83187 MB
Memory footprint by rank 0 on node 0       : 98 MB
==================================================
====================================================
  SimpleFixedNodeBranch::finalize after a VMC block
    QMC counter        = 3
    time step          = 0.15
    reference energy   = -145.056
    reference variance = 2.17142
====================================================
  Execution time = 5.1087e+00
</vmc>
<opt stage="setup">
  <log>
   Reading configurations from h5FileRoot Co.log.s003
  QMCCostFunction is created with 1 threads.
  Using Nonlocal PP in Opt: NonLocalECP
   Number of samples loaded to each thread : 500 
  VMC Eavg = -1.4503e+02
  VMC Evar = 2.0819e+00
  Total weights = 5.1200e+05
  Execution time = 2.9848e+00
  </log>
</opt>
<opt stage="main" walkers="512000">
  <log>

*****************************************
Building overlap and Hamiltonian matrices
*****************************************

Among totally 82 optimized parameters, largest LM parameter change : 5.7348e-02 at parameter 23

******************************************************************************
Init Cost =  -1.3767e+02    New Cost =  -1.3767e+02  Delta Cost =  -2.7594e-04
******************************************************************************

The new set of parameters is valid. Updating the trial wave function!

*****************************************************************************
Applying the update for shift_i =   1.0000e-02     and shift_s =   1.5625e-02
*****************************************************************************
  Execution time = 9.3947e+00
  </log>
  <optVariables href="Co.log.s003.opt.xml">
uu_0 2.0056e-01 1 1  ON 0
uu_1 4.5133e-02 1 1  ON 1
uu_2 -1.0732e-02 1 1  ON 2
uu_3 -3.7075e-02 1 1  ON 3
uu_4 -5.9190e-02 1 1  ON 4
uu_5 -8.0684e-02 1 1  ON 5
uu_6 -7.8520e-02 1 1  ON 6
uu_7 -4.0269e-02 1 1  ON 7
uu_8 2.4177e-02 1 1  ON 8
uu_9 4.3285e-02 1 1  ON 9
ud_0 5.1568e-01 1 1  ON 10
ud_1 2.2305e-01 1 1  ON 11
ud_2 5.8833e-02 1 1  ON 12
ud_3 -1.1626e-02 1 1  ON 13
ud_4 -6.0325e-02 1 1  ON 14
ud_5 -1.0769e-01 1 1  ON 15
ud_6 -1.1415e-01 1 1  ON 16
ud_7 -1.1809e-01 1 1  ON 17
ud_8 -8.0617e-02 1 1  ON 18
ud_9 -5.1091e-02 1 1  ON 19
eCo_0 -2.5748e+00 1 1  ON 20
eCo_1 -1.4069e+00 1 1  ON 21
eCo_2 -2.3341e-01 1 1  ON 22
eCo_3 3.5135e-01 1 1  ON 23
eCo_4 6.9223e-01 1 1  ON 24
eCo_5 9.8296e-01 1 1  ON 25
eCo_6 1.1179e+00 1 1  ON 26
eCo_7 8.4061e-01 1 1  ON 27
eCo_8 2.4610e-01 1 1  ON 28
eCo_9 9.4947e-03 1 1  ON 29
uuCo_0 2.1170e-06 1 1  ON 30
uuCo_1 1.4885e-06 1 1  ON 31
uuCo_2 -2.5267e-07 1 1  ON 32
uuCo_3 -3.0209e-06 1 1  ON 33
uuCo_4 -5.3992e-07 1 1  ON 34
uuCo_5 2.1615e-08 1 1  ON 35
uuCo_6 2.7477e-07 1 1  ON 36
uuCo_7 1.6490e-06 1 1  ON 37
uuCo_8 2.5235e-06 1 1  ON 38
uuCo_9 -2.4188e-06 1 1  ON 39
uuCo_10 -1.9083e-06 1 1  ON 40
uuCo_11 -1.7025e-06 1 1  ON 41
uuCo_12 -5.4445e-07 1 1  ON 42
uuCo_13 2.5441e-06 1 1  ON 43
uuCo_14 6.6098e-07 1 1  ON 44
uuCo_15 -1.5299e-08 1 1  ON 45
uuCo_16 2.1605e-06 1 1  ON 46
uuCo_17 2.1907e-06 1 1  ON 47
uuCo_18 5.6284e-07 1 1  ON 48
uuCo_19 2.2702e-08 1 1  ON 49
uuCo_20 -5.5624e-07 1 1  ON 50
uuCo_21 -2.1150e-07 1 1  ON 51
uuCo_22 3.9068e-08 1 1  ON 52
uuCo_23 2.1078e-07 1 1  ON 53
uuCo_24 3.7233e-08 1 1  ON 54
uuCo_25 -1.2896e-08 1 1  ON 55
udCo_0 5.0077e-06 1 1  ON 56
udCo_1 5.3716e-06 1 1  ON 57
udCo_2 -1.3043e-06 1 1  ON 58
udCo_3 -6.6145e-06 1 1  ON 59
udCo_4 -1.2112e-06 1 1  ON 60
udCo_5 -1.1611e-06 1 1  ON 61
udCo_6 7.6057e-06 1 1  ON 62
udCo_7 -5.5235e-06 1 1  ON 63
udCo_8 9.2350e-07 1 1  ON 64
udCo_9 -9.0455e-06 1 1  ON 65
udCo_10 -5.2366e-06 1 1  ON 66
udCo_11 4.2702e-06 1 1  ON 67
udCo_12 -6.7173e-07 1 1  ON 68
udCo_13 7.1756e-06 1 1  ON 69
udCo_14 3.0042e-07 1 1  ON 70
udCo_15 2.7046e-08 1 1  ON 71
udCo_16 9.7596e-06 1 1  ON 72
udCo_17 6.8000e-06 1 1  ON 73
udCo_18 -5.0138e-06 1 1  ON 74
udCo_19 5.9931e-07 1 1  ON 75
udCo_20 -4.1431e-06 1 1  ON 76
udCo_21 7.4315e-07 1 1  ON 77
udCo_22 -9.9939e-08 1 1  ON 78
udCo_23 1.5259e-06 1 1  ON 79
udCo_24 -2.0194e-07 1 1  ON 80
udCo_25 2.5410e-08 1 1  ON 81
  </optVariables>
   Restore the number of walkers to 1, removing 0 walkers.
</opt>
</optimization-report>
  QMC Execution time = 9.4105e+00 secs 
  Reusing QMCFixedSampleLinearOptimize
 Using QMCCostFunction::QMCCostFunction

=========================================================
  Start QMCFixedSampleLinearOptimize
  File Root Co.log.s004 append = no 
=========================================================
  Skip QMCDriver::putQMCInfo 
  Resetting Properties of the walkers 1 x 13

=========================================================
  Start VMC
  File Root Co.log.s004 append = no 
=========================================================
Using existing walkers 
  Resetting Properties of the walkers 1 x 13

<vmc function="put">
  qmc_counter=3  my_counter=3
  time step      = 1.5000e-01
  blocks         = 500
  steps          = 1
  substeps       = 5
  current        = 0
  target samples = 5.1200e+05
  walkers/mpi    = 1

  stepsbetweensamples = 1
<parameter name="blocks" condition="int">500</parameter>
<parameter name="blocks_between_recompute" condition="int">0</parameter>
<parameter name="check_properties" condition="int">100</parameter>
<parameter name="checkproperties" condition="int">100</parameter>
<parameter name="current" condition="int">0</parameter>
<parameter name="dmcwalkersperthread" condition="real">5.0000e+02</parameter>
<parameter name="maxcpusecs" condition="real">3.6000e+05</parameter>
<parameter name="record_configs" condition="int">0</parameter>
<parameter name="record_walkers" condition="int">1</parameter>
<parameter name="recordconfigs" condition="int">0</parameter>
<parameter name="recordwalkers" condition="int">1</parameter>
<parameter name="rewind" condition="int">0</parameter>
<parameter name="samples" condition="real">5.1200e+05</parameter>
<parameter name="samplesperthread" condition="real">5.0000e+02</parameter>
<parameter name="steps" condition="int">1</parameter>
<parameter name="stepsbetweensamples" condition="int">1</parameter>
<parameter name="store_configs" condition="int">0</parameter>
<parameter name="storeconfigs" condition="int">0</parameter>
<parameter name="sub_steps" condition="int">5</parameter>
<parameter name="substeps" condition="int">5</parameter>
<parameter name="tau" condition="au">1.5000e-01</parameter>
<parameter name="time_step" condition="au">1.5000e-01</parameter>
<parameter name="timestep" condition="au">1.5000e-01</parameter>
<parameter name="use_drift" condition="string">no</parameter>
<parameter name="usedrift" condition="string">no</parameter>
<parameter name="walkers" condition="int">1</parameter>
<parameter name="warmup_steps" condition="int">0</parameter>
<parameter name="warmupsteps" condition="int">0</parameter>
  DumpConfig==false Nothing (configurations, state) will be saved.
  Walker Samples are dumped every 1 steps.
</vmc>
  EstimatorManagerBase::add replace LocalEnergy estimator.
  EstimatorManagerBase::add replace LocalEnergy estimator.
<optimization-report>
<vmc stage="main" blocks="500">
  Cannot make clones again. Use existing 1 clones
  Initial partition of walkers 0 1 
  Using Particle by Particle moves
  Walker moves without drift
  Total Sample Size   =512000
  Walker distribution on root = 0 1 
  Using Locality Approximation
===== Memory Usage after the buffer registration =====
Available memory on node 0, free + buffers : 83183 MB
Memory footprint by rank 0 on node 0       : 101 MB
==================================================
====================================================
  SimpleFixedNodeBranch::finalize after a VMC block
    QMC counter        = 4
    time step          = 0.15
    reference energy   = -144.982
    reference variance = 2.50354
====================================================
  Execution time = 4.7378e+00
</vmc>
<opt stage="setup">
  <log>
   Reading configurations from h5FileRoot Co.log.s004
  QMCCostFunction is created with 1 threads.
  Using Nonlocal PP in Opt: NonLocalECP
   Number of samples loaded to each thread : 500 
  VMC Eavg = -1.4503e+02
  VMC Evar = 2.0539e+00
  Total weights = 5.1200e+05
  Execution time = 3.0143e+00
  </log>
</opt>
<opt stage="main" walkers="512000">
  <log>

*****************************************
Building overlap and Hamiltonian matrices
*****************************************

Among totally 82 optimized parameters, largest LM parameter change : 4.3331e-02 at parameter 20

******************************************************************************
Init Cost =  -1.3767e+02    New Cost =  -1.3767e+02  Delta Cost =   8.4579e-05
******************************************************************************

The new set of parameters is valid. Updating the trial wave function!

*****************************************************************************
Applying the update for shift_i =   1.0000e-02     and shift_s =   3.9062e-03
*****************************************************************************
  Execution time = 9.0552e+00
  </log>
  <optVariables href="Co.log.s004.opt.xml">
uu_0 2.0033e-01 1 1  ON 0
uu_1 4.2484e-02 1 1  ON 1
uu_2 -1.4706e-02 1 1  ON 2
uu_3 -3.7639e-02 1 1  ON 3
uu_4 -5.9038e-02 1 1  ON 4
uu_5 -7.9669e-02 1 1  ON 5
uu_6 -8.0027e-02 1 1  ON 6
uu_7 -4.4334e-02 1 1  ON 7
uu_8 2.0526e-02 1 1  ON 8
uu_9 4.3022e-02 1 1  ON 9
ud_0 5.3509e-01 1 1  ON 10
ud_1 2.3454e-01 1 1  ON 11
ud_2 6.0984e-02 1 1  ON 12
ud_3 -1.3139e-02 1 1  ON 13
ud_4 -6.2691e-02 1 1  ON 14
ud_5 -1.0928e-01 1 1  ON 15
ud_6 -1.1684e-01 1 1  ON 16
ud_7 -1.1868e-01 1 1  ON 17
ud_8 -8.6353e-02 1 1  ON 18
ud_9 -6.1614e-02 1 1  ON 19
eCo_0 -2.6181e+00 1 1  ON 20
eCo_1 -1.4454e+00 1 1  ON 21
eCo_2 -2.0330e-01 1 1  ON 22
eCo_3 3.9461e-01 1 1  ON 23
eCo_4 6.9721e-01 1 1  ON 24
eCo_5 9.6162e-01 1 1  ON 25
eCo_6 1.1182e+00 1 1  ON 26
eCo_7 8.5358e-01 1 1  ON 27
eCo_8 2.5647e-01 1 1  ON 28
eCo_9 9.6232e-03 1 1  ON 29
uuCo_0 2.5311e-06 1 1  ON 30
uuCo_1 1.7522e-06 1 1  ON 31
uuCo_2 -7.7804e-07 1 1  ON 32
uuCo_3 -3.4023e-06 1 1  ON 33
uuCo_4 -5.5913e-07 1 1  ON 34
uuCo_5 8.8467e-09 1 1  ON 35
uuCo_6 3.9798e-07 1 1  ON 36
uuCo_7 1.1418e-06 1 1  ON 37
uuCo_8 2.1296e-06 1 1  ON 38
uuCo_9 -2.8709e-06 1 1  ON 39
uuCo_10 -2.2974e-06 1 1  ON 40
uuCo_11 -8.5130e-07 1 1  ON 41
uuCo_12 -5.0638e-07 1 1  ON 42
uuCo_13 3.1567e-06 1 1  ON 43
uuCo_14 6.2108e-07 1 1  ON 44
uuCo_15 -1.5664e-08 1 1  ON 45
uuCo_16 2.6281e-06 1 1  ON 46
uuCo_17 3.0551e-06 1 1  ON 47
uuCo_18 -3.2934e-07 1 1  ON 48
uuCo_19 9.1661e-08 1 1  ON 49
uuCo_20 -9.6684e-07 1 1  ON 50
uuCo_21 -6.1522e-08 1 1  ON 51
uuCo_22 1.9287e-08 1 1  ON 52
uuCo_23 3.5435e-07 1 1  ON 53
uuCo_24 -5.3457e-09 1 1  ON 54
uuCo_25 -6.1112e-09 1 1  ON 55
udCo_0 4.9700e-06 1 1  ON 56
udCo_1 5.2439e-06 1 1  ON 57
udCo_2 -1.0629e-06 1 1  ON 58
udCo_3 -6.3999e-06 1 1  ON 59
udCo_4 -1.1558e-06 1 1  ON 60
udCo_5 -1.2134e-06 1 1  ON 61
udCo_6 7.7457e-06 1 1  ON 62
udCo_7 -5.3557e-06 1 1  ON 63
udCo_8 9.2178e-07 1 1  ON 64
udCo_9 -9.1445e-06 1 1  ON 65
udCo_10 -4.9835e-06 1 1  ON 66
udCo_11 3.8949e-06 1 1  ON 67
udCo_12 -5.9164e-07 1 1  ON 68
udCo_13 6.8146e-06 1 1  ON 69
udCo_14 2.2036e-07 1 1  ON 70
udCo_15 2.7495e-08 1 1  ON 71
udCo_16 1.0162e-05 1 1  ON 72
udCo_17 6.0728e-06 1 1  ON 73
udCo_18 -4.5574e-06 1 1  ON 74
udCo_19 5.0975e-07 1 1  ON 75
udCo_20 -4.0472e-06 1 1  ON 76
udCo_21 7.1659e-07 1 1  ON 77
udCo_22 -9.1087e-08 1 1  ON 78
udCo_23 1.4505e-06 1 1  ON 79
udCo_24 -1.9459e-07 1 1  ON 80
udCo_25 2.3880e-08 1 1  ON 81
  </optVariables>
   Restore the number of walkers to 1, removing 0 walkers.
</opt>
</optimization-report>
  QMC Execution time = 9.0708e+00 secs 
  Reusing QMCFixedSampleLinearOptimize
 Using QMCCostFunction::QMCCostFunction

=========================================================
  Start QMCFixedSampleLinearOptimize
  File Root Co.log.s005 append = no 
=========================================================
  Skip QMCDriver::putQMCInfo 
  Resetting Properties of the walkers 1 x 13

=========================================================
  Start VMC
  File Root Co.log.s005 append = no 
=========================================================
Using existing walkers 
  Resetting Properties of the walkers 1 x 13

<vmc function="put">
  qmc_counter=4  my_counter=4
  time step      = 1.5000e-01
  blocks         = 500
  steps          = 1
  substeps       = 5
  current        = 0
  target samples = 5.1200e+05
  walkers/mpi    = 1

  stepsbetweensamples = 1
<parameter name="blocks" condition="int">500</parameter>
<parameter name="blocks_between_recompute" condition="int">0</parameter>
<parameter name="check_properties" condition="int">100</parameter>
<parameter name="checkproperties" condition="int">100</parameter>
<parameter name="current" condition="int">0</parameter>
<parameter name="dmcwalkersperthread" condition="real">5.0000e+02</parameter>
<parameter name="maxcpusecs" condition="real">3.6000e+05</parameter>
<parameter name="record_configs" condition="int">0</parameter>
<parameter name="record_walkers" condition="int">1</parameter>
<parameter name="recordconfigs" condition="int">0</parameter>
<parameter name="recordwalkers" condition="int">1</parameter>
<parameter name="rewind" condition="int">0</parameter>
<parameter name="samples" condition="real">5.1200e+05</parameter>
<parameter name="samplesperthread" condition="real">5.0000e+02</parameter>
<parameter name="steps" condition="int">1</parameter>
<parameter name="stepsbetweensamples" condition="int">1</parameter>
<parameter name="store_configs" condition="int">0</parameter>
<parameter name="storeconfigs" condition="int">0</parameter>
<parameter name="sub_steps" condition="int">5</parameter>
<parameter name="substeps" condition="int">5</parameter>
<parameter name="tau" condition="au">1.5000e-01</parameter>
<parameter name="time_step" condition="au">1.5000e-01</parameter>
<parameter name="timestep" condition="au">1.5000e-01</parameter>
<parameter name="use_drift" condition="string">no</parameter>
<parameter name="usedrift" condition="string">no</parameter>
<parameter name="walkers" condition="int">1</parameter>
<parameter name="warmup_steps" condition="int">0</parameter>
<parameter name="warmupsteps" condition="int">0</parameter>
  DumpConfig==false Nothing (configurations, state) will be saved.
  Walker Samples are dumped every 1 steps.
</vmc>
  EstimatorManagerBase::add replace LocalEnergy estimator.
  EstimatorManagerBase::add replace LocalEnergy estimator.
<optimization-report>
<vmc stage="main" blocks="500">
  Cannot make clones again. Use existing 1 clones
  Initial partition of walkers 0 1 
  Using Particle by Particle moves
  Walker moves without drift
  Total Sample Size   =512000
  Walker distribution on root = 0 1 
  Using Locality Approximation
===== Memory Usage after the buffer registration =====
Available memory on node 0, free + buffers : 83180 MB
Memory footprint by rank 0 on node 0       : 105 MB
==================================================
====================================================
  SimpleFixedNodeBranch::finalize after a VMC block
    QMC counter        = 5
    time step          = 0.15
    reference energy   = -145.079
    reference variance = 2.03774
====================================================
  Execution time = 4.7129e+00
</vmc>
<opt stage="setup">
  <log>
   Reading configurations from h5FileRoot Co.log.s005
  QMCCostFunction is created with 1 threads.
  Using Nonlocal PP in Opt: NonLocalECP
   Number of samples loaded to each thread : 500 
  VMC Eavg = -1.4503e+02
  VMC Evar = 2.3074e+00
  Total weights = 5.1200e+05
  Execution time = 3.0076e+00
  </log>
</opt>
<opt stage="main" walkers="512000">
  <log>

*****************************************
Building overlap and Hamiltonian matrices
*****************************************

Among totally 82 optimized parameters, largest LM parameter change : 4.8230e-02 at parameter 20

******************************************************************************
Init Cost =  -1.3766e+02    New Cost =  -1.3766e+02  Delta Cost =  -8.7481e-04
******************************************************************************

The new set of parameters is valid. Updating the trial wave function!

*****************************************************************************
Applying the update for shift_i =   1.0000e-02     and shift_s =   3.9062e-03
*****************************************************************************
  Execution time = 9.0377e+00
  </log>
  <optVariables href="Co.log.s005.opt.xml">
uu_0 1.9965e-01 1 1  ON 0
uu_1 4.5404e-02 1 1  ON 1
uu_2 -8.6525e-03 1 1  ON 2
uu_3 -3.2521e-02 1 1  ON 3
uu_4 -6.1034e-02 1 1  ON 4
uu_5 -8.1092e-02 1 1  ON 5
uu_6 -8.1649e-02 1 1  ON 6
uu_7 -5.6996e-02 1 1  ON 7
uu_8 7.8195e-03 1 1  ON 8
uu_9 4.7098e-02 1 1  ON 9
ud_0 5.4919e-01 1 1  ON 10
ud_1 2.4157e-01 1 1  ON 11
ud_2 5.7811e-02 1 1  ON 12
ud_3 -1.8976e-02 1 1  ON 13
ud_4 -6.5290e-02 1 1  ON 14
ud_5 -1.0641e-01 1 1  ON 15
ud_6 -1.1362e-01 1 1  ON 16
ud_7 -1.1274e-01 1 1  ON 17
ud_8 -8.6766e-02 1 1  ON 18
ud_9 -6.2652e-02 1 1  ON 19
eCo_0 -2.6664e+00 1 1  ON 20
eCo_1 -1.4685e+00 1 1  ON 21
eCo_2 -1.8312e-01 1 1  ON 22
eCo_3 4.3642e-01 1 1  ON 23
eCo_4 7.0878e-01 1 1  ON 24
eCo_5 9.3845e-01 1 1  ON 25
eCo_6 1.1085e+00 1 1  ON 26
eCo_7 8.6956e-01 1 1  ON 27
eCo_8 2.6825e-01 1 1  ON 28
eCo_9 1.2400e-02 1 1  ON 29
uuCo_0 2.2670e-06 1 1  ON 30
uuCo_1 1.7268e-06 1 1  ON 31
uuCo_2 -5.0615e-07 1 1  ON 32
uuCo_3 -3.2680e-06 1 1  ON 33
uuCo_4 -5.8911e-07 1 1  ON 34
uuCo_5 7.5709e-08 1 1  ON 35
uuCo_6 5.2579e-07 1 1  ON 36
uuCo_7 1.2364e-06 1 1  ON 37
uuCo_8 2.4151e-06 1 1  ON 38
uuCo_9 -2.7001e-06 1 1  ON 39
uuCo_10 -2.1895e-06 1 1  ON 40
uuCo_11 -1.1404e-06 1 1  ON 41
uuCo_12 -6.1375e-07 1 1  ON 42
uuCo_13 2.9182e-06 1 1  ON 43
uuCo_14 7.0765e-07 1 1  ON 44
uuCo_15 -1.2509e-08 1 1  ON 45
uuCo_16 2.2511e-06 1 1  ON 46
uuCo_17 2.9317e-06 1 1  ON 47
uuCo_18 -1.1008e-07 1 1  ON 48
uuCo_19 1.4497e-07 1 1  ON 49
uuCo_20 -7.2545e-07 1 1  ON 50
uuCo_21 -1.3226e-07 1 1  ON 51
uuCo_22 1.9351e-08 1 1  ON 52
uuCo_23 2.5240e-07 1 1  ON 53
uuCo_24 1.7042e-08 1 1  ON 54
uuCo_25 -8.1400e-09 1 1  ON 55
udCo_0 5.0597e-06 1 1  ON 56
udCo_1 5.0740e-06 1 1  ON 57
udCo_2 -1.2332e-06 1 1  ON 58
udCo_3 -6.4465e-06 1 1  ON 59
udCo_4 -1.1400e-06 1 1  ON 60
udCo_5 -1.3051e-06 1 1  ON 61
udCo_6 7.3879e-06 1 1  ON 62
udCo_7 -5.3565e-06 1 1  ON 63
udCo_8 7.9502e-07 1 1  ON 64
udCo_9 -8.8582e-06 1 1  ON 65
udCo_10 -4.9936e-06 1 1  ON 66
udCo_11 4.1675e-06 1 1  ON 67
udCo_12 -6.2496e-07 1 1  ON 68
udCo_13 6.7729e-06 1 1  ON 69
udCo_14 2.6617e-07 1 1  ON 70
udCo_15 2.5745e-08 1 1  ON 71
udCo_16 9.2842e-06 1 1  ON 72
udCo_17 6.4379e-06 1 1  ON 73
udCo_18 -4.8619e-06 1 1  ON 74
udCo_19 5.7906e-07 1 1  ON 75
udCo_20 -3.7863e-06 1 1  ON 76
udCo_21 7.0892e-07 1 1  ON 77
udCo_22 -9.5664e-08 1 1  ON 78
udCo_23 1.3482e-06 1 1  ON 79
udCo_24 -1.8446e-07 1 1  ON 80
udCo_25 2.3268e-08 1 1  ON 81
  </optVariables>
   Restore the number of walkers to 1, removing 0 walkers.
</opt>
</optimization-report>
  QMC Execution time = 9.0537e+00 secs 
  Reusing QMCFixedSampleLinearOptimize
 Using QMCCostFunction::QMCCostFunction

=========================================================
  Start QMCFixedSampleLinearOptimize
  File Root Co.log.s006 append = no 
=========================================================
  Skip QMCDriver::putQMCInfo 
  Resetting Properties of the walkers 1 x 13

=========================================================
  Start VMC
  File Root Co.log.s006 append = no 
=========================================================
Using existing walkers 
  Resetting Properties of the walkers 1 x 13

<vmc function="put">
  qmc_counter=5  my_counter=5
  time step      = 1.5000e-01
  blocks         = 500
  steps          = 1
  substeps       = 5
  current        = 0
  target samples = 5.1200e+05
  walkers/mpi    = 1

  stepsbetweensamples = 1
<parameter name="blocks" condition="int">500</parameter>
<parameter name="blocks_between_recompute" condition="int">0</parameter>
<parameter name="check_properties" condition="int">100</parameter>
<parameter name="checkproperties" condition="int">100</parameter>
<parameter name="current" condition="int">0</parameter>
<parameter name="dmcwalkersperthread" condition="real">5.0000e+02</parameter>
<parameter name="maxcpusecs" condition="real">3.6000e+05</parameter>
<parameter name="record_configs" condition="int">0</parameter>
<parameter name="record_walkers" condition="int">1</parameter>
<parameter name="recordconfigs" condition="int">0</parameter>
<parameter name="recordwalkers" condition="int">1</parameter>
<parameter name="rewind" condition="int">0</parameter>
<parameter name="samples" condition="real">5.1200e+05</parameter>
<parameter name="samplesperthread" condition="real">5.0000e+02</parameter>
<parameter name="steps" condition="int">1</parameter>
<parameter name="stepsbetweensamples" condition="int">1</parameter>
<parameter name="store_configs" condition="int">0</parameter>
<parameter name="storeconfigs" condition="int">0</parameter>
<parameter name="sub_steps" condition="int">5</parameter>
<parameter name="substeps" condition="int">5</parameter>
<parameter name="tau" condition="au">1.5000e-01</parameter>
<parameter name="time_step" condition="au">1.5000e-01</parameter>
<parameter name="timestep" condition="au">1.5000e-01</parameter>
<parameter name="use_drift" condition="string">no</parameter>
<parameter name="usedrift" condition="string">no</parameter>
<parameter name="walkers" condition="int">1</parameter>
<parameter name="warmup_steps" condition="int">0</parameter>
<parameter name="warmupsteps" condition="int">0</parameter>
  DumpConfig==false Nothing (configurations, state) will be saved.
  Walker Samples are dumped every 1 steps.
</vmc>
  EstimatorManagerBase::add replace LocalEnergy estimator.
  EstimatorManagerBase::add replace LocalEnergy estimator.
<optimization-report>
<vmc stage="main" blocks="500">
  Cannot make clones again. Use existing 1 clones
  Initial partition of walkers 0 1 
  Using Particle by Particle moves
  Walker moves without drift
  Total Sample Size   =512000
  Walker distribution on root = 0 1 
  Using Locality Approximation
===== Memory Usage after the buffer registration =====
Available memory on node 0, free + buffers : 83176 MB
Memory footprint by rank 0 on node 0       : 108 MB
==================================================
====================================================
  SimpleFixedNodeBranch::finalize after a VMC block
    QMC counter        = 6
    time step          = 0.15
    reference energy   = -145.111
    reference variance = 2.67401
====================================================
  Execution time = 4.7187e+00
</vmc>
<opt stage="setup">
  <log>
   Reading configurations from h5FileRoot Co.log.s006
  QMCCostFunction is created with 1 threads.
  Using Nonlocal PP in Opt: NonLocalECP
   Number of samples loaded to each thread : 500 
  VMC Eavg = -1.4503e+02
  VMC Evar = 2.0863e+00
  Total weights = 5.1200e+05
  Execution time = 3.0142e+00
  </log>
</opt>
<opt stage="main" walkers="512000">
  <log>

*****************************************
Building overlap and Hamiltonian matrices
*****************************************

Among totally 82 optimized parameters, largest LM parameter change : 4.4636e-02 at parameter 23

******************************************************************************
Init Cost =  -1.3767e+02    New Cost =  -1.3767e+02  Delta Cost =   1.6953e-04
******************************************************************************

The new set of parameters is valid. Updating the trial wave function!

*****************************************************************************
Applying the update for shift_i =   1.0000e-02     and shift_s =   3.9062e-03
*****************************************************************************
  Execution time = 9.0415e+00
  </log>
  <optVariables href="Co.log.s006.opt.xml">
uu_0 1.9674e-01 1 1  ON 0
uu_1 4.0564e-02 1 1  ON 1
uu_2 -1.0599e-02 1 1  ON 2
uu_3 -3.3233e-02 1 1  ON 3
uu_4 -5.7574e-02 1 1  ON 4
uu_5 -7.4190e-02 1 1  ON 5
uu_6 -7.4044e-02 1 1  ON 6
uu_7 -5.3214e-02 1 1  ON 7
uu_8 1.2229e-02 1 1  ON 8
uu_9 3.8206e-02 1 1  ON 9
ud_0 5.6140e-01 1 1  ON 10
ud_1 2.5538e-01 1 1  ON 11
ud_2 7.1696e-02 1 1  ON 12
ud_3 -8.9376e-03 1 1  ON 13
ud_4 -6.0524e-02 1 1  ON 14
ud_5 -1.0381e-01 1 1  ON 15
ud_6 -1.1184e-01 1 1  ON 16
ud_7 -1.1619e-01 1 1  ON 17
ud_8 -8.8266e-02 1 1  ON 18
ud_9 -6.8717e-02 1 1  ON 19
eCo_0 -2.7101e+00 1 1  ON 20
eCo_1 -1.4955e+00 1 1  ON 21
eCo_2 -1.6597e-01 1 1  ON 22
eCo_3 4.8105e-01 1 1  ON 23
eCo_4 7.1725e-01 1 1  ON 24
eCo_5 9.1579e-01 1 1  ON 25
eCo_6 1.1061e+00 1 1  ON 26
eCo_7 8.8196e-01 1 1  ON 27
eCo_8 2.8323e-01 1 1  ON 28
eCo_9 1.2723e-02 1 1  ON 29
uuCo_0 2.3631e-06 1 1  ON 30
uuCo_1 1.6595e-06 1 1  ON 31
uuCo_2 -6.2634e-07 1 1  ON 32
uuCo_3 -3.2090e-06 1 1  ON 33
uuCo_4 -5.4594e-07 1 1  ON 34
uuCo_5 9.4985e-08 1 1  ON 35
uuCo_6 4.1995e-07 1 1  ON 36
uuCo_7 9.8034e-07 1 1  ON 37
uuCo_8 2.2091e-06 1 1  ON 38
uuCo_9 -2.6961e-06 1 1  ON 39
uuCo_10 -2.1259e-06 1 1  ON 40
uuCo_11 -9.6821e-07 1 1  ON 41
uuCo_12 -5.5120e-07 1 1  ON 42
uuCo_13 2.9720e-06 1 1  ON 43
uuCo_14 6.4588e-07 1 1  ON 44
uuCo_15 -1.2460e-08 1 1  ON 45
uuCo_16 2.4964e-06 1 1  ON 46
uuCo_17 2.8891e-06 1 1  ON 47
uuCo_18 -2.0057e-07 1 1  ON 48
uuCo_19 1.3240e-07 1 1  ON 49
uuCo_20 -9.5076e-07 1 1  ON 50
uuCo_21 -8.6290e-08 1 1  ON 51
uuCo_22 1.3811e-08 1 1  ON 52
uuCo_23 3.7531e-07 1 1  ON 53
uuCo_24 -4.5994e-09 1 1  ON 54
uuCo_25 -4.7476e-09 1 1  ON 55
udCo_0 5.0572e-06 1 1  ON 56
udCo_1 4.9268e-06 1 1  ON 57
udCo_2 -1.2539e-06 1 1  ON 58
udCo_3 -6.3057e-06 1 1  ON 59
udCo_4 -1.0639e-06 1 1  ON 60
udCo_5 -1.3005e-06 1 1  ON 61
udCo_6 7.1804e-06 1 1  ON 62
udCo_7 -5.1279e-06 1 1  ON 63
udCo_8 6.7243e-07 1 1  ON 64
udCo_9 -8.7731e-06 1 1  ON 65
udCo_10 -4.8087e-06 1 1  ON 66
udCo_11 3.9256e-06 1 1  ON 67
udCo_12 -5.1164e-07 1 1  ON 68
udCo_13 6.4652e-06 1 1  ON 69
udCo_14 1.7301e-07 1 1  ON 70
udCo_15 2.4418e-08 1 1  ON 71
udCo_16 9.6099e-06 1 1  ON 72
udCo_17 5.8791e-06 1 1  ON 73
udCo_18 -4.5239e-06 1 1  ON 74
udCo_19 4.7541e-07 1 1  ON 75
udCo_20 -3.8175e-06 1 1  ON 76
udCo_21 7.0592e-07 1 1  ON 77
udCo_22 -8.6396e-08 1 1  ON 78
udCo_23 1.3860e-06 1 1  ON 79
udCo_24 -1.8533e-07 1 1  ON 80
udCo_25 2.1929e-08 1 1  ON 81
  </optVariables>
   Restore the number of walkers to 1, removing 0 walkers.
</opt>
</optimization-report>
  QMC Execution time = 9.0572e+00 secs 
  Reusing QMCFixedSampleLinearOptimize
 Using QMCCostFunction::QMCCostFunction

=========================================================
  Start QMCFixedSampleLinearOptimize
  File Root Co.log.s007 append = no 
=========================================================
  Skip QMCDriver::putQMCInfo 
  Resetting Properties of the walkers 1 x 13

=========================================================
  Start VMC
  File Root Co.log.s007 append = no 
=========================================================
Using existing walkers 
  Resetting Properties of the walkers 1 x 13

<vmc function="put">
  qmc_counter=6  my_counter=6
  time step      = 1.5000e-01
  blocks         = 500
  steps          = 1
  substeps       = 5
  current        = 0
  target samples = 5.1200e+05
  walkers/mpi    = 1

  stepsbetweensamples = 1
<parameter name="blocks" condition="int">500</parameter>
<parameter name="blocks_between_recompute" condition="int">0</parameter>
<parameter name="check_properties" condition="int">100</parameter>
<parameter name="checkproperties" condition="int">100</parameter>
<parameter name="current" condition="int">0</parameter>
<parameter name="dmcwalkersperthread" condition="real">5.0000e+02</parameter>
<parameter name="maxcpusecs" condition="real">3.6000e+05</parameter>
<parameter name="record_configs" condition="int">0</parameter>
<parameter name="record_walkers" condition="int">1</parameter>
<parameter name="recordconfigs" condition="int">0</parameter>
<parameter name="recordwalkers" condition="int">1</parameter>
<parameter name="rewind" condition="int">0</parameter>
<parameter name="samples" condition="real">5.1200e+05</parameter>
<parameter name="samplesperthread" condition="real">5.0000e+02</parameter>
<parameter name="steps" condition="int">1</parameter>
<parameter name="stepsbetweensamples" condition="int">1</parameter>
<parameter name="store_configs" condition="int">0</parameter>
<parameter name="storeconfigs" condition="int">0</parameter>
<parameter name="sub_steps" condition="int">5</parameter>
<parameter name="substeps" condition="int">5</parameter>
<parameter name="tau" condition="au">1.5000e-01</parameter>
<parameter name="time_step" condition="au">1.5000e-01</parameter>
<parameter name="timestep" condition="au">1.5000e-01</parameter>
<parameter name="use_drift" condition="string">no</parameter>
<parameter name="usedrift" condition="string">no</parameter>
<parameter name="walkers" condition="int">1</parameter>
<parameter name="warmup_steps" condition="int">0</parameter>
<parameter name="warmupsteps" condition="int">0</parameter>
  DumpConfig==false Nothing (configurations, state) will be saved.
  Walker Samples are dumped every 1 steps.
</vmc>
  EstimatorManagerBase::add replace LocalEnergy estimator.
  EstimatorManagerBase::add replace LocalEnergy estimator.
<optimization-report>
<vmc stage="main" blocks="500">
  Cannot make clones again. Use existing 1 clones
  Initial partition of walkers 0 1 
  Using Particle by Particle moves
  Walker moves without drift
  Total Sample Size   =512000
  Walker distribution on root = 0 1 
  Using Locality Approximation
===== Memory Usage after the buffer registration =====
Available memory on node 0, free + buffers : 83172 MB
Memory footprint by rank 0 on node 0       : 111 MB
==================================================
====================================================
  SimpleFixedNodeBranch::finalize after a VMC block
    QMC counter        = 7
    time step          = 0.15
    reference energy   = -144.993
    reference variance = 1.93495
====================================================
  Execution time = 4.7744e+00
</vmc>
<opt stage="setup">
  <log>
   Reading configurations from h5FileRoot Co.log.s007
  QMCCostFunction is created with 1 threads.
  Using Nonlocal PP in Opt: NonLocalECP
   Number of samples loaded to each thread : 500 
  VMC Eavg = -1.4503e+02
  VMC Evar = 2.0705e+00
  Total weights = 5.1200e+05
  Execution time = 3.0157e+00
  </log>
</opt>
<opt stage="main" walkers="512000">
  <log>

*****************************************
Building overlap and Hamiltonian matrices
*****************************************

Among totally 82 optimized parameters, largest LM parameter change : 4.4648e-02 at parameter 20

******************************************************************************
Init Cost =  -1.3767e+02    New Cost =  -1.3767e+02  Delta Cost =  -4.7378e-04
******************************************************************************

The new set of parameters is valid. Updating the trial wave function!

*****************************************************************************
Applying the update for shift_i =   1.0000e-02     and shift_s =   3.9062e-03
*****************************************************************************
  Execution time = 9.0894e+00
  </log>
  <optVariables href="Co.log.s007.opt.xml">
uu_0 1.9129e-01 1 1  ON 0
uu_1 4.1146e-02 1 1  ON 1
uu_2 -1.1247e-02 1 1  ON 2
uu_3 -3.5505e-02 1 1  ON 3
uu_4 -5.9592e-02 1 1  ON 4
uu_5 -7.7092e-02 1 1  ON 5
uu_6 -7.6624e-02 1 1  ON 6
uu_7 -5.3189e-02 1 1  ON 7
uu_8 1.6866e-02 1 1  ON 8
uu_9 5.2890e-02 1 1  ON 9
ud_0 5.6897e-01 1 1  ON 10
ud_1 2.5957e-01 1 1  ON 11
ud_2 7.6938e-02 1 1  ON 12
ud_3 -3.3905e-03 1 1  ON 13
ud_4 -5.4956e-02 1 1  ON 14
ud_5 -9.9602e-02 1 1  ON 15
ud_6 -1.0558e-01 1 1  ON 16
ud_7 -1.1977e-01 1 1  ON 17
ud_8 -9.6121e-02 1 1  ON 18
ud_9 -6.4964e-02 1 1  ON 19
eCo_0 -2.7548e+00 1 1  ON 20
eCo_1 -1.5188e+00 1 1  ON 21
eCo_2 -1.4489e-01 1 1  ON 22
eCo_3 5.1242e-01 1 1  ON 23
eCo_4 7.3227e-01 1 1  ON 24
eCo_5 8.9601e-01 1 1  ON 25
eCo_6 1.0975e+00 1 1  ON 26
eCo_7 8.9258e-01 1 1  ON 27
eCo_8 3.0018e-01 1 1  ON 28
eCo_9 1.7017e-02 1 1  ON 29
uuCo_0 2.3942e-06 1 1  ON 30
uuCo_1 1.6330e-06 1 1  ON 31
uuCo_2 -7.7799e-07 1 1  ON 32
uuCo_3 -3.2879e-06 1 1  ON 33
uuCo_4 -5.0578e-07 1 1  ON 34
uuCo_5 1.3593e-07 1 1  ON 35
uuCo_6 2.0220e-07 1 1  ON 36
uuCo_7 9.4391e-07 1 1  ON 37
uuCo_8 2.1096e-06 1 1  ON 38
uuCo_9 -2.5845e-06 1 1  ON 39
uuCo_10 -2.1531e-06 1 1  ON 40
uuCo_11 -8.5289e-07 1 1  ON 41
uuCo_12 -5.3975e-07 1 1  ON 42
uuCo_13 2.9018e-06 1 1  ON 43
uuCo_14 6.2975e-07 1 1  ON 44
uuCo_15 -1.1731e-08 1 1  ON 45
uuCo_16 2.3342e-06 1 1  ON 46
uuCo_17 2.9010e-06 1 1  ON 47
uuCo_18 -2.6996e-07 1 1  ON 48
uuCo_19 1.3718e-07 1 1  ON 49
uuCo_20 -8.3826e-07 1 1  ON 50
uuCo_21 -8.6016e-08 1 1  ON 51
uuCo_22 1.4685e-08 1 1  ON 52
uuCo_23 3.1666e-07 1 1  ON 53
uuCo_24 1.8831e-09 1 1  ON 54
uuCo_25 -6.1476e-09 1 1  ON 55
udCo_0 4.9455e-06 1 1  ON 56
udCo_1 4.7700e-06 1 1  ON 57
udCo_2 -1.2409e-06 1 1  ON 58
udCo_3 -6.2067e-06 1 1  ON 59
udCo_4 -1.0351e-06 1 1  ON 60
udCo_5 -1.3172e-06 1 1  ON 61
udCo_6 7.0017e-06 1 1  ON 62
udCo_7 -5.0624e-06 1 1  ON 63
udCo_8 4.9062e-07 1 1  ON 64
udCo_9 -8.4598e-06 1 1  ON 65
udCo_10 -4.7036e-06 1 1  ON 66
udCo_11 3.9859e-06 1 1  ON 67
udCo_12 -4.5640e-07 1 1  ON 68
udCo_13 6.1456e-06 1 1  ON 69
udCo_14 1.1143e-07 1 1  ON 70
udCo_15 2.5220e-08 1 1  ON 71
udCo_16 9.0060e-06 1 1  ON 72
udCo_17 5.6076e-06 1 1  ON 73
udCo_18 -4.5044e-06 1 1  ON 74
udCo_19 4.6764e-07 1 1  ON 75
udCo_20 -3.4472e-06 1 1  ON 76
udCo_21 6.9347e-07 1 1  ON 77
udCo_22 -8.6606e-08 1 1  ON 78
udCo_23 1.2141e-06 1 1  ON 79
udCo_24 -1.7168e-07 1 1  ON 80
udCo_25 2.0996e-08 1 1  ON 81
  </optVariables>
   Restore the number of walkers to 1, removing 0 walkers.
</opt>
</optimization-report>
  QMC Execution time = 9.1054e+00 secs 
  Reusing QMCFixedSampleLinearOptimize
 Using QMCCostFunction::QMCCostFunction

=========================================================
  Start QMCFixedSampleLinearOptimize
  File Root Co.log.s008 append = no 
=========================================================
  Skip QMCDriver::putQMCInfo 
  Resetting Properties of the walkers 1 x 13

=========================================================
  Start VMC
  File Root Co.log.s008 append = no 
=========================================================
Using existing walkers 
  Resetting Properties of the walkers 1 x 13

<vmc function="put">
  qmc_counter=7  my_counter=7
  time step      = 1.5000e-01
  blocks         = 500
  steps          = 1
  substeps       = 5
  current        = 0
  target samples = 5.1200e+05
  walkers/mpi    = 1

  stepsbetweensamples = 1
<parameter name="blocks" condition="int">500</parameter>
<parameter name="blocks_between_recompute" condition="int">0</parameter>
<parameter name="check_properties" condition="int">100</parameter>
<parameter name="checkproperties" condition="int">100</parameter>
<parameter name="current" condition="int">0</parameter>
<parameter name="dmcwalkersperthread" condition="real">5.0000e+02</parameter>
<parameter name="maxcpusecs" condition="real">3.6000e+05</parameter>
<parameter name="record_configs" condition="int">0</parameter>
<parameter name="record_walkers" condition="int">1</parameter>
<parameter name="recordconfigs" condition="int">0</parameter>
<parameter name="recordwalkers" condition="int">1</parameter>
<parameter name="rewind" condition="int">0</parameter>
<parameter name="samples" condition="real">5.1200e+05</parameter>
<parameter name="samplesperthread" condition="real">5.0000e+02</parameter>
<parameter name="steps" condition="int">1</parameter>
<parameter name="stepsbetweensamples" condition="int">1</parameter>
<parameter name="store_configs" condition="int">0</parameter>
<parameter name="storeconfigs" condition="int">0</parameter>
<parameter name="sub_steps" condition="int">5</parameter>
<parameter name="substeps" condition="int">5</parameter>
<parameter name="tau" condition="au">1.5000e-01</parameter>
<parameter name="time_step" condition="au">1.5000e-01</parameter>
<parameter name="timestep" condition="au">1.5000e-01</parameter>
<parameter name="use_drift" condition="string">no</parameter>
<parameter name="usedrift" condition="string">no</parameter>
<parameter name="walkers" condition="int">1</parameter>
<parameter name="warmup_steps" condition="int">0</parameter>
<parameter name="warmupsteps" condition="int">0</parameter>
  DumpConfig==false Nothing (configurations, state) will be saved.
  Walker Samples are dumped every 1 steps.
</vmc>
  EstimatorManagerBase::add replace LocalEnergy estimator.
  EstimatorManagerBase::add replace LocalEnergy estimator.
<optimization-report>
<vmc stage="main" blocks="500">
  Cannot make clones again. Use existing 1 clones
  Initial partition of walkers 0 1 
  Using Particle by Particle moves
  Walker moves without drift
  Total Sample Size   =512000
  Walker distribution on root = 0 1 
  Using Locality Approximation
===== Memory Usage after the buffer registration =====
Available memory on node 0, free + buffers : 83167 MB
Memory footprint by rank 0 on node 0       : 114 MB
==================================================
====================================================
  SimpleFixedNodeBranch::finalize after a VMC block
    QMC counter        = 8
    time step          = 0.15
    reference energy   = -145.09
    reference variance = 2.31995
====================================================
  Execution time = 4.7868e+00
</vmc>
<opt stage="setup">
  <log>
   Reading configurations from h5FileRoot Co.log.s008
  QMCCostFunction is created with 1 threads.
  Using Nonlocal PP in Opt: NonLocalECP
   Number of samples loaded to each thread : 500 
  VMC Eavg = -1.4503e+02
  VMC Evar = 2.0406e+00
  Total weights = 5.1200e+05
  Execution time = 3.0437e+00
  </log>
</opt>
<opt stage="main" walkers="512000">
  <log>

*****************************************
Building overlap and Hamiltonian matrices
*****************************************

Among totally 82 optimized parameters, largest LM parameter change : 4.2111e-02 at parameter 20

******************************************************************************
Init Cost =  -1.3767e+02    New Cost =  -1.3767e+02  Delta Cost =  -1.5482e-04
******************************************************************************

The new set of parameters is valid. Updating the trial wave function!

*****************************************************************************
Applying the update for shift_i =   1.0000e-02     and shift_s =   3.9062e-03
*****************************************************************************
  Execution time = 9.1496e+00
  </log>
  <optVariables href="Co.log.s008.opt.xml">
uu_0 1.9587e-01 1 1  ON 0
uu_1 4.4147e-02 1 1  ON 1
uu_2 -6.6086e-03 1 1  ON 2
uu_3 -2.7500e-02 1 1  ON 3
uu_4 -4.7021e-02 1 1  ON 4
uu_5 -6.9366e-02 1 1  ON 5
uu_6 -6.8662e-02 1 1  ON 6
uu_7 -4.4905e-02 1 1  ON 7
uu_8 1.1388e-02 1 1  ON 8
uu_9 3.8313e-02 1 1  ON 9
ud_0 5.7049e-01 1 1  ON 10
ud_1 2.6128e-01 1 1  ON 11
ud_2 7.5802e-02 1 1  ON 12
ud_3 -4.3410e-03 1 1  ON 13
ud_4 -5.0719e-02 1 1  ON 14
ud_5 -9.0825e-02 1 1  ON 15
ud_6 -9.6677e-02 1 1  ON 16
ud_7 -1.0897e-01 1 1  ON 17
ud_8 -7.6408e-02 1 1  ON 18
ud_9 -6.5343e-02 1 1  ON 19
eCo_0 -2.7969e+00 1 1  ON 20
eCo_1 -1.5372e+00 1 1  ON 21
eCo_2 -1.3002e-01 1 1  ON 22
eCo_3 5.4482e-01 1 1  ON 23
eCo_4 7.4465e-01 1 1  ON 24
eCo_5 8.7921e-01 1 1  ON 25
eCo_6 1.0906e+00 1 1  ON 26
eCo_7 9.0664e-01 1 1  ON 27
eCo_8 3.1611e-01 1 1  ON 28
eCo_9 1.6527e-02 1 1  ON 29
uuCo_0 2.3765e-06 1 1  ON 30
uuCo_1 1.7033e-06 1 1  ON 31
uuCo_2 -6.8476e-07 1 1  ON 32
uuCo_3 -3.2010e-06 1 1  ON 33
uuCo_4 -5.1202e-07 1 1  ON 34
uuCo_5 1.9083e-07 1 1  ON 35
uuCo_6 4.7181e-07 1 1  ON 36
uuCo_7 1.0027e-06 1 1  ON 37
uuCo_8 2.0860e-06 1 1  ON 38
uuCo_9 -2.8013e-06 1 1  ON 39
uuCo_10 -2.1197e-06 1 1  ON 40
uuCo_11 -9.4901e-07 1 1  ON 41
uuCo_12 -5.0338e-07 1 1  ON 42
uuCo_13 2.8532e-06 1 1  ON 43
uuCo_14 5.9179e-07 1 1  ON 44
uuCo_15 -1.1578e-08 1 1  ON 45
uuCo_16 2.7221e-06 1 1  ON 46
uuCo_17 2.6549e-06 1 1  ON 47
uuCo_18 -1.8379e-07 1 1  ON 48
uuCo_19 1.1657e-07 1 1  ON 49
uuCo_20 -8.6581e-07 1 1  ON 50
uuCo_21 -7.3105e-08 1 1  ON 51
uuCo_22 1.2859e-08 1 1  ON 52
uuCo_23 3.1025e-07 1 1  ON 53
uuCo_24 -5.4478e-09 1 1  ON 54
uuCo_25 -4.3224e-09 1 1  ON 55
udCo_0 5.1025e-06 1 1  ON 56
udCo_1 4.9978e-06 1 1  ON 57
udCo_2 -1.2902e-06 1 1  ON 58
udCo_3 -6.3751e-06 1 1  ON 59
udCo_4 -1.0624e-06 1 1  ON 60
udCo_5 -1.2917e-06 1 1  ON 61
udCo_6 7.4211e-06 1 1  ON 62
udCo_7 -5.5726e-06 1 1  ON 63
udCo_8 4.6087e-07 1 1  ON 64
udCo_9 -8.9543e-06 1 1  ON 65
udCo_10 -4.8611e-06 1 1  ON 66
udCo_11 4.3071e-06 1 1  ON 67
udCo_12 -4.8762e-07 1 1  ON 68
udCo_13 6.6198e-06 1 1  ON 69
udCo_14 1.2190e-07 1 1  ON 70
udCo_15 2.6798e-08 1 1  ON 71
udCo_16 9.6699e-06 1 1  ON 72
udCo_17 6.0211e-06 1 1  ON 73
udCo_18 -4.8392e-06 1 1  ON 74
udCo_19 5.1332e-07 1 1  ON 75
udCo_20 -3.8955e-06 1 1  ON 76
udCo_21 7.5769e-07 1 1  ON 77
udCo_22 -9.6302e-08 1 1  ON 78
udCo_23 1.3892e-06 1 1  ON 79
udCo_24 -1.9692e-07 1 1  ON 80
udCo_25 2.4658e-08 1 1  ON 81
  </optVariables>
   Restore the number of walkers to 1, removing 0 walkers.
</opt>
</optimization-report>
  QMC Execution time = 9.1653e+00 secs 
  Reusing QMCFixedSampleLinearOptimize
 Using QMCCostFunction::QMCCostFunction

=========================================================
  Start QMCFixedSampleLinearOptimize
  File Root Co.log.s009 append = no 
=========================================================
  Skip QMCDriver::putQMCInfo 
  Resetting Properties of the walkers 1 x 13

=========================================================
  Start VMC
  File Root Co.log.s009 append = no 
=========================================================
Using existing walkers 
  Resetting Properties of the walkers 1 x 13

<vmc function="put">
  qmc_counter=8  my_counter=8
  time step      = 1.5000e-01
  blocks         = 500
  steps          = 1
  substeps       = 5
  current        = 0
  target samples = 5.1200e+05
  walkers/mpi    = 1

  stepsbetweensamples = 1
<parameter name="blocks" condition="int">500</parameter>
<parameter name="blocks_between_recompute" condition="int">0</parameter>
<parameter name="check_properties" condition="int">100</parameter>
<parameter name="checkproperties" condition="int">100</parameter>
<parameter name="current" condition="int">0</parameter>
<parameter name="dmcwalkersperthread" condition="real">5.0000e+02</parameter>
<parameter name="maxcpusecs" condition="real">3.6000e+05</parameter>
<parameter name="record_configs" condition="int">0</parameter>
<parameter name="record_walkers" condition="int">1</parameter>
<parameter name="recordconfigs" condition="int">0</parameter>
<parameter name="recordwalkers" condition="int">1</parameter>
<parameter name="rewind" condition="int">0</parameter>
<parameter name="samples" condition="real">5.1200e+05</parameter>
<parameter name="samplesperthread" condition="real">5.0000e+02</parameter>
<parameter name="steps" condition="int">1</parameter>
<parameter name="stepsbetweensamples" condition="int">1</parameter>
<parameter name="store_configs" condition="int">0</parameter>
<parameter name="storeconfigs" condition="int">0</parameter>
<parameter name="sub_steps" condition="int">5</parameter>
<parameter name="substeps" condition="int">5</parameter>
<parameter name="tau" condition="au">1.5000e-01</parameter>
<parameter name="time_step" condition="au">1.5000e-01</parameter>
<parameter name="timestep" condition="au">1.5000e-01</parameter>
<parameter name="use_drift" condition="string">no</parameter>
<parameter name="usedrift" condition="string">no</parameter>
<parameter name="walkers" condition="int">1</parameter>
<parameter name="warmup_steps" condition="int">0</parameter>
<parameter name="warmupsteps" condition="int">0</parameter>
  DumpConfig==false Nothing (configurations, state) will be saved.
  Walker Samples are dumped every 1 steps.
</vmc>
  EstimatorManagerBase::add replace LocalEnergy estimator.
  EstimatorManagerBase::add replace LocalEnergy estimator.
<optimization-report>
<vmc stage="main" blocks="500">
  Cannot make clones again. Use existing 1 clones
  Initial partition of walkers 0 1 
  Using Particle by Particle moves
  Walker moves without drift
  Total Sample Size   =512000
  Walker distribution on root = 0 1 
  Using Locality Approximation
===== Memory Usage after the buffer registration =====
Available memory on node 0, free + buffers : 83164 MB
Memory footprint by rank 0 on node 0       : 117 MB
==================================================
====================================================
  SimpleFixedNodeBranch::finalize after a VMC block
    QMC counter        = 9
    time step          = 0.15
    reference energy   = -145.043
    reference variance = 1.72286
====================================================
  Execution time = 4.7399e+00
</vmc>
<opt stage="setup">
  <log>
   Reading configurations from h5FileRoot Co.log.s009
  QMCCostFunction is created with 1 threads.
  Using Nonlocal PP in Opt: NonLocalECP
   Number of samples loaded to each thread : 500 
  VMC Eavg = -1.4503e+02
  VMC Evar = 2.1194e+00
  Total weights = 5.1200e+05
  Execution time = 3.0091e+00
  </log>
</opt>
<opt stage="main" walkers="512000">
  <log>

*****************************************
Building overlap and Hamiltonian matrices
*****************************************

Among totally 82 optimized parameters, largest LM parameter change : 4.4865e-02 at parameter 20

******************************************************************************
Init Cost =  -1.3767e+02    New Cost =  -1.3767e+02  Delta Cost =  -5.1770e-04
******************************************************************************

The new set of parameters is valid. Updating the trial wave function!

*****************************************************************************
Applying the update for shift_i =   1.0000e-02     and shift_s =   3.9062e-03
*****************************************************************************
  Execution time = 9.0543e+00
  </log>
  <optVariables href="Co.log.s009.opt.xml">
uu_0 1.9939e-01 1 1  ON 0
uu_1 4.7617e-02 1 1  ON 1
uu_2 -1.4636e-03 1 1  ON 2
uu_3 -2.1206e-02 1 1  ON 3
uu_4 -4.4174e-02 1 1  ON 4
uu_5 -6.4917e-02 1 1  ON 5
uu_6 -6.8219e-02 1 1  ON 6
uu_7 -5.2592e-02 1 1  ON 7
uu_8 8.4535e-04 1 1  ON 8
uu_9 2.9244e-02 1 1  ON 9
ud_0 5.7257e-01 1 1  ON 10
ud_1 2.6383e-01 1 1  ON 11
ud_2 8.0726e-02 1 1  ON 12
ud_3 7.7533e-05 1 1  ON 13
ud_4 -4.6927e-02 1 1  ON 14
ud_5 -9.0658e-02 1 1  ON 15
ud_6 -9.8115e-02 1 1  ON 16
ud_7 -1.1799e-01 1 1  ON 17
ud_8 -8.7303e-02 1 1  ON 18
ud_9 -5.4422e-02 1 1  ON 19
eCo_0 -2.8417e+00 1 1  ON 20
eCo_1 -1.5536e+00 1 1  ON 21
eCo_2 -1.1770e-01 1 1  ON 22
eCo_3 5.8043e-01 1 1  ON 23
eCo_4 7.5589e-01 1 1  ON 24
eCo_5 8.6754e-01 1 1  ON 25
eCo_6 1.0851e+00 1 1  ON 26
eCo_7 9.1178e-01 1 1  ON 27
eCo_8 3.2915e-01 1 1  ON 28
eCo_9 1.8197e-02 1 1  ON 29
uuCo_0 2.3987e-06 1 1  ON 30
uuCo_1 1.7987e-06 1 1  ON 31
uuCo_2 -4.9370e-07 1 1  ON 32
uuCo_3 -3.2882e-06 1 1  ON 33
uuCo_4 -5.7481e-07 1 1  ON 34
uuCo_5 2.4924e-07 1 1  ON 35
uuCo_6 7.7744e-07 1 1  ON 36
uuCo_7 8.7526e-07 1 1  ON 37
uuCo_8 2.3964e-06 1 1  ON 38
uuCo_9 -3.1096e-06 1 1  ON 39
uuCo_10 -2.1935e-06 1 1  ON 40
uuCo_11 -1.1172e-06 1 1  ON 41
uuCo_12 -5.7531e-07 1 1  ON 42
uuCo_13 3.2243e-06 1 1  ON 43
[...]
====================================================
  Execution time = 4.7750e+00
</vmc>
<opt stage="setup">
  <log>
   Reading configurations from h5FileRoot Co.log.s020
  QMCCostFunction is created with 1 threads.
  Using Nonlocal PP in Opt: NonLocalECP
   Number of samples loaded to each thread : 500 
  VMC Eavg = -1.4503e+02
  VMC Evar = 2.0773e+00
  Total weights = 5.1200e+05
  Execution time = 3.0047e+00
  </log>
</opt>
<opt stage="main" walkers="512000">
  <log>

*****************************************
Building overlap and Hamiltonian matrices
*****************************************

Among totally 82 optimized parameters, largest LM parameter change : 2.2272e-02 at parameter 20

******************************************************************************
Init Cost =  -1.3767e+02    New Cost =  -1.3767e+02  Delta Cost =   8.4758e-05
******************************************************************************

The new set of parameters is valid. Updating the trial wave function!

*****************************************************************************
Applying the update for shift_i =   1.0000e-02     and shift_s =   3.9062e-03
*****************************************************************************
  Execution time = 9.0736e+00
  </log>
  <optVariables href="Co.log.s020.opt.xml">
uu_0 1.6477e-01 1 1  ON 0
uu_1 2.0146e-02 1 1  ON 1
uu_2 -1.6031e-02 1 1  ON 2
uu_3 -2.6885e-02 1 1  ON 3
uu_4 -4.5550e-02 1 1  ON 4
uu_5 -6.0943e-02 1 1  ON 5
uu_6 -5.8753e-02 1 1  ON 6
uu_7 -4.9035e-02 1 1  ON 7
uu_8 1.0915e-02 1 1  ON 8
uu_9 3.6267e-02 1 1  ON 9
ud_0 5.7163e-01 1 1  ON 10
ud_1 2.6730e-01 1 1  ON 11
ud_2 8.9412e-02 1 1  ON 12
ud_3 2.0086e-02 1 1  ON 13
ud_4 -2.2271e-02 1 1  ON 14
ud_5 -6.1352e-02 1 1  ON 15
ud_6 -7.2635e-02 1 1  ON 16
ud_7 -9.9414e-02 1 1  ON 17
ud_8 -8.1277e-02 1 1  ON 18
ud_9 -5.8168e-02 1 1  ON 19
eCo_0 -3.1839e+00 1 1  ON 20
eCo_1 -1.7496e+00 1 1  ON 21
eCo_2 -1.3890e-02 1 1  ON 22
eCo_3 8.4388e-01 1 1  ON 23
eCo_4 8.7445e-01 1 1  ON 24
eCo_5 7.0463e-01 1 1  ON 25
eCo_6 1.0285e+00 1 1  ON 26
eCo_7 1.0087e+00 1 1  ON 27
eCo_8 4.8225e-01 1 1  ON 28
eCo_9 4.7356e-02 1 1  ON 29
uuCo_0 2.4345e-06 1 1  ON 30
uuCo_1 1.6075e-06 1 1  ON 31
uuCo_2 -1.0260e-06 1 1  ON 32
uuCo_3 -3.2396e-06 1 1  ON 33
uuCo_4 -4.7433e-07 1 1  ON 34
uuCo_5 4.8227e-07 1 1  ON 35
uuCo_6 7.9930e-08 1 1  ON 36
uuCo_7 8.0215e-07 1 1  ON 37
uuCo_8 1.8127e-06 1 1  ON 38
uuCo_9 -2.5633e-06 1 1  ON 39
uuCo_10 -2.1407e-06 1 1  ON 40
uuCo_11 -5.6306e-07 1 1  ON 41
uuCo_12 -4.8123e-07 1 1  ON 42
uuCo_13 2.9011e-06 1 1  ON 43
uuCo_14 5.8267e-07 1 1  ON 44
uuCo_15 -1.2653e-08 1 1  ON 45
uuCo_16 2.3009e-06 1 1  ON 46
uuCo_17 2.9905e-06 1 1  ON 47
uuCo_18 -5.6132e-07 1 1  ON 48
uuCo_19 1.7730e-07 1 1  ON 49
uuCo_20 -8.7295e-07 1 1  ON 50
uuCo_21 -4.7140e-08 1 1  ON 51
uuCo_22 3.7536e-09 1 1  ON 52
uuCo_23 3.3255e-07 1 1  ON 53
uuCo_24 -9.9323e-09 1 1  ON 54
uuCo_25 -2.7186e-09 1 1  ON 55
udCo_0 5.2415e-06 1 1  ON 56
udCo_1 5.0454e-06 1 1  ON 57
udCo_2 -1.5843e-06 1 1  ON 58
udCo_3 -6.5573e-06 1 1  ON 59
udCo_4 -1.0873e-06 1 1  ON 60
udCo_5 -1.0726e-06 1 1  ON 61
udCo_6 7.4180e-06 1 1  ON 62
udCo_7 -5.7589e-06 1 1  ON 63
udCo_8 1.8667e-07 1 1  ON 64
udCo_9 -9.1351e-06 1 1  ON 65
udCo_10 -5.0737e-06 1 1  ON 66
udCo_11 4.7735e-06 1 1  ON 67
udCo_12 -4.8486e-07 1 1  ON 68
udCo_13 6.7451e-06 1 1  ON 69
udCo_14 9.6644e-08 1 1  ON 70
udCo_15 2.9603e-08 1 1  ON 71
udCo_16 9.9093e-06 1 1  ON 72
udCo_17 6.2998e-06 1 1  ON 73
udCo_18 -5.2903e-06 1 1  ON 74
udCo_19 5.9792e-07 1 1  ON 75
udCo_20 -4.0109e-06 1 1  ON 76
udCo_21 8.0718e-07 1 1  ON 77
udCo_22 -1.1109e-07 1 1  ON 78
udCo_23 1.4156e-06 1 1  ON 79
udCo_24 -2.0564e-07 1 1  ON 80
udCo_25 2.7257e-08 1 1  ON 81
  </optVariables>
   Restore the number of walkers to 1, removing 0 walkers.
</opt>
</optimization-report>
  QMC Execution time = 9.0889e+00 secs 

=========================================================
  Start VMC
  File Root Co.log.s021 append = no 
=========================================================
  Using the current 1 walkers.
  Total number of walkers: 1.0240e+03
  Total weight: 1.0240e+03
  Resetting Properties of the walkers 1 x 13

<vmc function="put">
  qmc_counter=0  my_counter=0
  time step      = 1.5000e-01
  blocks         = 200
  steps          = 1
  substeps       = 30
  current        = 0
  target samples = 4.0960e+03
  walkers/mpi    = 1

  stepsbetweensamples = 50
<parameter name="blocks" condition="int">200</parameter>
<parameter name="blocks_between_recompute" condition="int">0</parameter>
<parameter name="check_properties" condition="int">100</parameter>
<parameter name="checkproperties" condition="int">100</parameter>
<parameter name="current" condition="int">0</parameter>
<parameter name="dmcwalkersperthread" condition="real">4.0000e+00</parameter>
<parameter name="maxcpusecs" condition="real">3.6000e+05</parameter>
<parameter name="record_configs" condition="int">0</parameter>
<parameter name="record_walkers" condition="int">50</parameter>
<parameter name="recordconfigs" condition="int">0</parameter>
<parameter name="recordwalkers" condition="int">50</parameter>
<parameter name="rewind" condition="int">0</parameter>
<parameter name="samples" condition="real">4.0960e+03</parameter>
<parameter name="samplesperthread" condition="real">4.0000e+00</parameter>
<parameter name="steps" condition="int">1</parameter>
<parameter name="stepsbetweensamples" condition="int">50</parameter>
<parameter name="store_configs" condition="int">0</parameter>
<parameter name="storeconfigs" condition="int">0</parameter>
<parameter name="sub_steps" condition="int">30</parameter>
<parameter name="substeps" condition="int">30</parameter>
<parameter name="tau" condition="au">1.5000e-01</parameter>
<parameter name="time_step" condition="au">1.5000e-01</parameter>
<parameter name="timestep" condition="au">1.5000e-01</parameter>
<parameter name="use_drift" condition="string">no</parameter>
<parameter name="usedrift" condition="string">no</parameter>
<parameter name="walkers" condition="int">1</parameter>
<parameter name="warmup_steps" condition="int">100</parameter>
<parameter name="warmupsteps" condition="int">100</parameter>
  DumpConfig==false Nothing (configurations, state) will be saved.
  Walker Samples are dumped every 50 steps.
</vmc>
  EstimatorManagerBase::add replace LocalEnergy estimator.
  Cannot make clones again. Use existing 1 clones
  Initial partition of walkers 0 1 

  Using Particle by Particle moves
  Walker moves without drift
  Total Sample Size   =4096
  Walker distribution on root = 0 1 
  Using Locality Approximation
===== Memory Usage after the buffer registration =====
Available memory on node 0, free + buffers : 83111 MB
Memory footprint by rank 0 on node 0       : 155 MB
==================================================
  Anonymous Buffer size per walker : 9568 Bytes.
MEMORY increase 0 MB VMC::resetRun
====================================================
  SimpleFixedNodeBranch::finalize after a VMC block
    QMC counter        = 21
    time step          = 0.15
    reference energy   = -145.037
    reference variance = 1.93958
====================================================
  QMC Execution time = 7.0559e+00 secs 

=========================================================
  Start DMC
  File Root Co.log.s022 append = no 
=========================================================
Using existing walkers 
  Resetting Properties of the walkers 1 x 13
  EstimatorManagerBase::add replace LocalEnergy estimator.
  Cannot make clones again. Use existing 1 clones
  Total number of walkers: 4.0960e+03
  Total weight: 4.0960e+03
  Creating WalkerController: target  number of walkers = 4096
  Using WalkerControlMPI for dynamic population control.
  START ALL OVER 
  WalkerControlBase parameters 
    maxCopy = 2
    Max Walkers per MPI rank 9
    Min Walkers per MPI rank 1
    Using non-blocking send/recv
  QMC counter      = 22
  time step        = 2.0000e-02
  effective time step = 2.0000e-02
  trial energy     = -1.4504e+02
  reference energy = -1.4504e+02
  Feedback = 1.0000e+00
  reference variance = 1.9396e+00
  target walkers = 4096
  branching cutoff scheme classic
  branch cutoff = 5.0000e+01 7.5000e+01
  Max and minimum walkers per node= 9 1
  QMC Status (BranchMode) = 0000001101
  Initial partition of walkers on a node: 0 4 
  Updates by particle-by-particle moves
  DMC moves are rejected when a node crossing is detected
  Using Non-local T-moves v0, M. Casula, PRB 74, 161102(R) (2006)
===== Memory Usage after the buffer registration =====
Available memory on node 0, free + buffers : 83107 MB
Memory footprint by rank 0 on node 0       : 155 MB
==================================================
SimpleFixedNodeBranch::checkParameters 
  Average Energy of a population  = -145.028
  Energy Variance = 1.8953

  Fluctuating population
  Persistent walkers are killed after 1 MC sweeps
  BranchInterval = 1
  Steps per block = 50
  Number of blocks = 150

  DMC Engine Initialization = 4.2115e-02 secs 

 Warmup is completed after 100

  TauEff     = 1.8079e-02
 TauEff/Tau = 9.0395e-01
  Etrial     = -1.4511e+02
 Running average of energy = -1.4509e+02
                  Variance = 2.3123e+00
branch cutoff = 2.3123e+01 3.4685e+01
====================================================
  SimpleFixedNodeBranch::finalize after a DMC block
    QMC counter                   = 22
    time step                     = 0.02
    effective time step           = 0.0180733
    trial energy                  = -145.1
    reference energy              = -145.09
    reference variance            = 2.31231
    target walkers                = 4096
    branch cutoff                 = 23.1231 34.6846
    Max and minimum walkers per node= 9 1
    Feedback                      = 1
    QMC Status (BranchMode)       = 0000001111
====================================================
  QMC Execution time = 1.1056e+02 secs 
  Reusing DMC
BRANCH resetRun
 SimpleFixedNodeBranch::resetRun detected changes in <parameter>'s 
 BranchMode : 0000001111 0000001111
  WalkerControlBase parameters 
    maxCopy = 2
    Max Walkers per MPI rank 9
    Min Walkers per MPI rank 1
    Using non-blocking send/recv
 iParam (old):                  0                 1                22              4096                 9                 1                 1                 0
 iParam (new):                100                 1                22              4096                 9                 1                 1                 0
 vParam (old):   2.0000000000e-02  1.8073338388e-02 -1.4509974758e+02 -1.4509027114e+02 -1.4508683395e+02  3.4684595764e+01  2.3123063843e+01  8.6493728236e-02  2.3123063843e+00 -1.0738130933e+06  7.4010000000e+03  1.0000000000e+00  1.0000000000e+01  1.0000000000e+00  1.0000000000e+00  1.0000000000e+00  1.0000000000e+00
 vParam (new):   1.0000000000e-02  1.8073338388e-02 -1.4509974758e+02 -1.4509027114e+02 -1.4508683395e+02  3.4684595764e+01  2.3123063843e+01  8.6493728236e-02  2.3123063843e+00 -1.0738130933e+06  7.4010000000e+03  1.0000000000e+00  1.0000000000e+01  1.0000000000e+00  1.0000000000e+00  1.0000000000e+00  1.0000000000e+00

 Using branching cutoff scheme classic
SimpleFixedNodeBranch::checkParameters 
  Average Energy of a population  = -145.083
  Energy Variance = 2.63609

  Using Non-local T-moves v0, M. Casula, PRB 74, 161102(R) (2006)
===== Memory Usage after the buffer registration =====
Available memory on node 0, free + buffers : 83063 MB
Memory footprint by rank 0 on node 0       : 162 MB
==================================================

=========================================================
  Start DMC
  File Root Co.log.s023 append = no 
=========================================================
Using existing walkers 
  Resetting Properties of the walkers 1 x 13
  EstimatorManagerBase::add replace LocalEnergy estimator.
  Cannot make clones again. Use existing 1 clones
SimpleFixedNodeBranch::checkParameters 
  Average Energy of a population  = -145.084
  Energy Variance = 2.50939

  Fluctuating population
  Persistent walkers are killed after 1 MC sweeps
  BranchInterval = 1
  Steps per block = 100
  Number of blocks = 200

  DMC Engine Initialization = 3.5500526428e-04 secs 

 Warmup is completed after 100

  TauEff     = 9.5630524364e-03
 TauEff/Tau = 9.5630524364e-01
  Etrial     = -1.4496773576e+02
 Running average of energy = -1.4508563924e+02
                  Variance = 2.2973844143e+00
branch cutoff = 2.2973844143e+01 3.4460766215e+01
====================================================
  SimpleFixedNodeBranch::finalize after a DMC block
    QMC counter                   = 23
    time step                     = 0.01
    effective time step           = 0.00956309
    trial energy                  = -145.074
    reference energy              = -145.082
    reference variance            = 2.29738
    target walkers                = 4096
    branch cutoff                 = 22.9738 34.4608
    Max and minimum walkers per node= 9 1
    Feedback                      = 1
    QMC Status (BranchMode)       = 0000001111
====================================================
  QMC Execution time = 2.9682e+02 secs 
  Reusing DMC
BRANCH resetRun
 SimpleFixedNodeBranch::resetRun detected changes in <parameter>'s 
 BranchMode : 0000001111 0000001111
  WalkerControlBase parameters 
    maxCopy = 2
    Max Walkers per MPI rank 9
    Min Walkers per MPI rank 1
    Using non-blocking send/recv
 iParam (old):                  0                 1                23              4096                 9                 1                 1                 0
 iParam (new):                200                 1                23              4096                 9                 1                 1                 0
 vParam (old):   1.0000000000e-02  9.5630881713e-03 -1.4507400955e+02 -1.4508160670e+02 -1.4507858553e+02  3.4460766215e+01  2.2973844143e+01  8.7055522250e-02  2.2973844143e+00 -2.8872690518e+06  1.9901000000e+04  1.0000000000e+00  1.0000000000e+01  1.0000000000e+00  1.0000000000e+00  1.0000000000e+00  1.0000000000e+00
 vParam (new):   5.0000000000e-03  9.5630881713e-03 -1.4507400955e+02 -1.4508160670e+02 -1.4507858553e+02  3.4460766215e+01  2.2973844143e+01  8.7055522250e-02  2.2973844143e+00 -2.8872690518e+06  1.9901000000e+04  1.0000000000e+00  1.0000000000e+01  1.0000000000e+00  1.0000000000e+00  1.0000000000e+00  1.0000000000e+00

 Using branching cutoff scheme classic
SimpleFixedNodeBranch::checkParameters 
  Average Energy of a population  = -145.079
  Energy Variance = 2.30257

  Using Non-local T-moves v0, M. Casula, PRB 74, 161102(R) (2006)
===== Memory Usage after the buffer registration =====
Available memory on node 0, free + buffers : 83036 MB
Memory footprint by rank 0 on node 0       : 170 MB
==================================================

=========================================================
  Start DMC
  File Root Co.log.s024 append = no 
=========================================================
Using existing walkers 
  Resetting Properties of the walkers 1 x 13
  EstimatorManagerBase::add replace LocalEnergy estimator.
  Cannot make clones again. Use existing 1 clones
SimpleFixedNodeBranch::checkParameters 
  Average Energy of a population  = -145.092
  Energy Variance = 2.34128

  Fluctuating population
  Persistent walkers are killed after 1 MC sweeps
  BranchInterval = 1
  Steps per block = 200
  Number of blocks = 250

  DMC Engine Initialization = 3.2782554626e-04 secs 

 Warmup is completed after 200

  TauEff     = 4.9063734852e-03
 TauEff/Tau = 9.8127469704e-01
  Etrial     = -1.4492319852e+02
 Running average of energy = -1.4508227664e+02
                  Variance = 2.1906930181e+00
branch cutoff = 2.1906930181e+01 3.2860395271e+01
====================================================
  SimpleFixedNodeBranch::finalize after a DMC block
    QMC counter                   = 24
    time step                     = 0.005
    effective time step           = 0.00490603
    trial energy                  = -145.084
    reference energy              = -145.076
    reference variance            = 2.19069
    target walkers                = 4096
    branch cutoff                 = 21.9069 32.8604
    Max and minimum walkers per node= 9 1
    Feedback                      = 1
    QMC Status (BranchMode)       = 0000001111
====================================================
  QMC Execution time = 7.5000e+02 secs 
  Reusing DMC
BRANCH resetRun
 SimpleFixedNodeBranch::resetRun detected changes in <parameter>'s 
 BranchMode : 0000001111 0000001111
  WalkerControlBase parameters 
    maxCopy = 2
    Max Walkers per MPI rank 9
    Min Walkers per MPI rank 1
    Using non-blocking send/recv
 iParam (old):                  0                 1                24              4096                 9                 1                 1                 0
 iParam (new):                400                 1                24              4096                 9                 1                 1                 0
 vParam (old):   5.0000000000e-03  4.9060345703e-03 -1.4508439818e+02 -1.4507564752e+02 -1.4508573320e+02  3.2860395271e+01  2.1906930181e+01  9.1295310821e-02  2.1906930181e+00 -7.2249123320e+06  4.9801000000e+04  1.0000000000e+00  1.0000000000e+01  1.0000000000e+00  1.0000000000e+00  1.0000000000e+00  1.0000000000e+00
 vParam (new):   2.5000000000e-03  4.9060345703e-03 -1.4508439818e+02 -1.4507564752e+02 -1.4508573320e+02  3.2860395271e+01  2.1906930181e+01  9.1295310821e-02  2.1906930181e+00 -7.2249123320e+06  4.9801000000e+04  1.0000000000e+00  1.0000000000e+01  1.0000000000e+00  1.0000000000e+00  1.0000000000e+00  1.0000000000e+00

 Using branching cutoff scheme classic
SimpleFixedNodeBranch::checkParameters 
  Average Energy of a population  = -145.085
  Energy Variance = 1.92313

  Using Non-local T-moves v0, M. Casula, PRB 74, 161102(R) (2006)
===== Memory Usage after the buffer registration =====
Available memory on node 0, free + buffers : 82994 MB
Memory footprint by rank 0 on node 0       : 180 MB
==================================================

=========================================================
  Start DMC
  File Root Co.log.s025 append = no 
=========================================================
Using existing walkers 
  Resetting Properties of the walkers 1 x 13
  EstimatorManagerBase::add replace LocalEnergy estimator.
  Cannot make clones again. Use existing 1 clones
SimpleFixedNodeBranch::checkParameters 
  Average Energy of a population  = -145.092
  Energy Variance = 2.07052

  Fluctuating population
  Persistent walkers are killed after 1 MC sweeps
  BranchInterval = 1
  Steps per block = 400
  Number of blocks = 300

  DMC Engine Initialization = 3.5405158997e-04 secs 

 Warmup is completed after 400

  TauEff     = 2.4803089213e-03
 TauEff/Tau = 9.9212356852e-01
  Etrial     = -1.4526519321e+02
 Running average of energy = -1.4508468467e+02
                  Variance = 2.2188763484e+00
branch cutoff = 2.2188763484e+01 3.3283145226e+01
====================================================
  SimpleFixedNodeBranch::finalize after a DMC block
    QMC counter                   = 25
    time step                     = 0.0025
    effective time step           = 0.00248057
    trial energy                  = -145.074
    reference energy              = -145.073
    reference variance            = 2.21888
    target walkers                = 4096
    branch cutoff                 = 22.1888 33.2831
    Max and minimum walkers per node= 9 1
    Feedback                      = 1
    QMC Status (BranchMode)       = 0000001111
====================================================
  QMC Execution time = 1.7854e+03 secs 
  Total Execution time = 3.1359e+03 secs

=========================================================
  A new xml input file : Co.log.s025.cont.xml
TACC:  Shutdown complete. Exiting. 
