
 Primary working directories    : /global/cscratch1/sd/aannabe
 Secondary working directories  : /global/cscratch1/sd/aannabe
 Wavefunction directory         : /global/homes/a/aannabe/wfu/
 Main file repository           : /global/cscratch1/sd/aannabe/

 SHA1      : 2873118e99aab1bc19f5b6fc1784693c06d15c95
 NAME      : 2015.1.8
 ARCHNAME  : linux/x86_64
 FC        : /opt/cray/pe/craype/2.5.5/bin/ftn
 BLASLIB   : -Wl,-_start-group /opt/intel/compilers_and_libraries_2016.3.210/linux/mkl/lib/intel64/libmkl_intel_ilp64.a /opt/intel/compilers_and_libraries_2016.3.210/linux/mkl/lib/intel64/libmkl_intel_thread.a /opt/intel/compilers_and_libraries_2016.3.210/linux/mkl/lib/intel64/libmkl_core.a -Wl,-_end-group
 id        : lbl

 Nodes     nprocs
 nid00473     1

 Using customized tuning parameters: mindgm=8; mindgv=16; mindgc=4; mindgr=1; noblas=0; minvec=7
 default implementation of scratch files=df  

 ***,Ar
 memory,512,m
 gthresh,twoint=1.e-12
 
 gprint,basis,orbitals
 gexpec,ekin,pot
 
 angstrom
 geometry={
 1                                                                               ! Number of atoms
 Ar 0.0 0.0 0.0
 }
 
 basis={
 Including file /global/homes/a/aannabe/docs/totals/pps/Ar.pp
 Including file /global/homes/a/aannabe/docs/totals/basis/cc-pVnZ/Ar_5z.basis
 }
 
 {hf
 wf,8,1,0
 occ,1,1,1,0,1,0,0,0
                                                                                 !open,1.2
 closed,1,1,1,0,1,0,0,0
                                                                                 !sym,
 }
 scf(i)=energy
 
 _CC_NORM_MAX=2.0
 {uccsd(t)
 maxit,100
 core
 }
 posthf(i)=energy
 
 table,scf,posthf,ekin,pot
 save,5.csv,new
 
 

 Variables initialized (889), CPU time= 0.01 sec
 Commands  initialized (702), CPU time= 0.01 sec, 572 directives.
 Default parameters read. Elapsed time= 0.14 sec

 Checking input...
 Passed
1


                                         ***  PROGRAM SYSTEM MOLPRO  ***
                                       Copyright, TTI GmbH Stuttgart, 2015
                                    Version 2015.1 linked Sep  7 2016 23:09:38


 **********************************************************************************************************************************
 LABEL *   Ar                                                                            
  64 bit serial version                                                                  DATE: 08-Oct-18          TIME: 22:49:16  
 **********************************************************************************************************************************

 SHA1:             2873118e99aab1bc19f5b6fc1784693c06d15c95
 **********************************************************************************************************************************

 THRESHOLDS:

 ZERO    =  1.00D-12  ONEINT  =  1.00D-12  TWOINT  =  1.00D-12  PREFAC  =  1.00D-14  LOCALI  =  1.00D-09  EORDER  =  1.00D-04
 ENERGY  =  0.00D+00  ETEST   =  0.00D+00  EDENS   =  0.00D+00  THRDEDEF=  1.00D-06  GRADIENT=  1.00D-02  STEP    =  1.00D-03
 ORBITAL =  1.00D-05  CIVEC   =  1.00D-05  COEFF   =  1.00D-04  PRINTCI =  5.00D-02  PUNCHCI =  9.90D+01  OPTGRAD =  3.00D-04
 OPTENERG=  1.00D-06  OPTSTEP =  3.00D-04  THRGRAD =  1.00D-10  COMPRESS=  1.00D-11  VARMIN  =  1.00D-07  VARMAX  =  1.00D-03
 THRDOUB =  0.00D+00  THRDIV  =  1.00D-05  THRRED  =  1.00D-07  THRPSP  =  1.00D+00  THRDC   =  1.00D-10  THRCS   =  1.00D-10
 THRNRM  =  1.00D-08  THREQ   =  0.00D+00  THRDE   =  1.00D+00  THRREF  =  1.00D-05  SPARFAC =  1.00D+00  THRDLP  =  1.00D-07
 THRDIA  =  1.00D-10  THRDLS  =  1.00D-07  THRGPS  =  0.00D+00  THRKEX  =  0.00D+00  THRDIS  =  2.00D-01  THRVAR  =  1.00D-10
 THRLOC  =  1.00D-06  THRGAP  =  1.00D-06  THRLOCT = -1.00D+00  THRGAPT = -1.00D+00  THRORB  =  1.00D-06  THRMLTP =  0.00D+00
 THRCPQCI=  1.00D-10  KEXTA   =  0.00D+00  THRCOARS=  0.00D+00  SYMTOL  =  1.00D-06  GRADTOL =  1.00D-06  THROVL  =  1.00D-08
 THRORTH =  1.00D-08  GRID    =  1.00D-06  GRIDMAX =  1.00D-03  DTMAX   =  0.00D+00  THROCCDE=  1.00D-01  THROCCDE=  1.00D-01



 ZUNIT=ANG
 

Geometry recognized as XYZ


 Variable memory set to  512000000 words,  buffer space   230000 words

 SETTING BASIS          =    USERDEF


 Recomputing integrals since basis changed


 Using spherical harmonics



 PROGRAM * SEWARD (Integral evaluation for generally contracted gaussian basis sets)     Author: Roland Lindh, 1990

 Geometry written to block  1 of record 700

 Orientation using atomic masses  
 Molecule type: Atom
 Symmetry elements: X,Y,Z
 Rotational constants:       0.0000000      0.0000000      0.0000000 GHz  (calculated with average atomic masses)

 Point group  D2h 



 ATOMIC COORDINATES

 NR  ATOM    CHARGE       X              Y              Z

   1  AR      8.00    0.000000000    0.000000000    0.000000000


          AR  CORE POTENTIAL

          d POTENTIAL

 POWERS             1              3              2
 EXPONENTIALS   8.317181       13.12465       6.503132    
 COEFFICIENTS   8.000000       66.53745      -24.10039    

          s - d POTENTIAL

 POWERS             2              2
 EXPONENTIALS   27.06814       4.801263    
 COEFFICIENTS   18.91015       53.04001    

          p - d POTENTIAL

 POWERS             2              2
 EXPONENTIALS   11.13574       4.126631    
 COEFFICIENTS   8.015534       28.22021    


 BASIS DATA

   Nr Sym  Nuc  Type         Exponents   Contraction coefficients

    1.1 Ag    1  1s          17.798602     0.000155
                             10.185798     0.002011
                              5.829136     0.072819
                              3.335903    -0.297567
                              1.909073    -0.143663
                              1.092526     0.157775
                              0.625231     0.391895
                              0.357808     0.424724
                              0.204767     0.223240
                              0.117184     0.063299
    2.1 Ag    1  1s           1.529505     1.000000
    3.1 Ag    1  1s           0.723273     1.000000
    4.1 Ag    1  1s           0.342021     1.000000
    5.1 Ag    1  1s           0.161735     1.000000
    6.1 Ag    1  3d0          3.766125     1.000000
    7.1 Ag    1  3d2+         3.766125     1.000000
    8.1 Ag    1  3d0          1.581658     1.000000
    9.1 Ag    1  3d2+         1.581658     1.000000
   10.1 Ag    1  3d0          0.664248     1.000000
   11.1 Ag    1  3d2+         0.664248     1.000000
   12.1 Ag    1  3d0          0.278964     1.000000
   13.1 Ag    1  3d2+         0.278964     1.000000
   14.1 Ag    1  5g0          1.608765     1.000000
   15.1 Ag    1  5g4+         1.608765     1.000000
   16.1 Ag    1  5g2+         1.608765     1.000000
   17.1 Ag    1  5g0          0.673020     1.000000
   18.1 Ag    1  5g4+         0.673020     1.000000
   19.1 Ag    1  5g2+         0.673020     1.000000
    1.2 B3u   1  2px          7.610920    -0.008071
                              4.581784    -0.012332
                              2.758240    -0.061298
                              1.660464     0.101944
                              0.999601     0.172497
                              0.601761     0.288747
                              0.362261     0.247918
                              0.218082     0.231893
                              0.131285     0.095994
                              0.079034     0.046211
    2.2 B3u   1  2px          3.848596     1.000000
    3.2 B3u   1  2px          1.837529     1.000000
    4.2 B3u   1  2px          0.877336     1.000000
    5.2 B3u   1  2px          0.418888     1.000000
    6.2 B3u   1  4f1+         1.962257     1.000000
    7.2 B3u   1  4f3+         1.962257     1.000000
    8.2 B3u   1  4f1+         0.915696     1.000000
    9.2 B3u   1  4f3+         0.915696     1.000000
   10.2 B3u   1  4f1+         0.427314     1.000000
   11.2 B3u   1  4f3+         0.427314     1.000000
   12.2 B3u   1  6h1+         1.266388     1.000000
   13.2 B3u   1  6h3+         1.266388     1.000000
   14.2 B3u   1  6h5+         1.266388     1.000000
    1.3 B2u   1  2py          7.610920    -0.008071
                              4.581784    -0.012332
                              2.758240    -0.061298
                              1.660464     0.101944
                              0.999601     0.172497
                              0.601761     0.288747
                              0.362261     0.247918
                              0.218082     0.231893
                              0.131285     0.095994
                              0.079034     0.046211
    2.3 B2u   1  2py          3.848596     1.000000
    3.3 B2u   1  2py          1.837529     1.000000
    4.3 B2u   1  2py          0.877336     1.000000
    5.3 B2u   1  2py          0.418888     1.000000
    6.3 B2u   1  4f1-         1.962257     1.000000
    7.3 B2u   1  4f3-         1.962257     1.000000
    8.3 B2u   1  4f1-         0.915696     1.000000
    9.3 B2u   1  4f3-         0.915696     1.000000
   10.3 B2u   1  4f1-         0.427314     1.000000
   11.3 B2u   1  4f3-         0.427314     1.000000
   12.3 B2u   1  6h1-         1.266388     1.000000
   13.3 B2u   1  6h3-         1.266388     1.000000
   14.3 B2u   1  6h5-         1.266388     1.000000
    1.4 B1g   1  3d2-         3.766125     1.000000
    2.4 B1g   1  3d2-         1.581658     1.000000
    3.4 B1g   1  3d2-         0.664248     1.000000
    4.4 B1g   1  3d2-         0.278964     1.000000
    5.4 B1g   1  5g2-         1.608765     1.000000
    6.4 B1g   1  5g4-         1.608765     1.000000
    7.4 B1g   1  5g2-         0.673020     1.000000
    8.4 B1g   1  5g4-         0.673020     1.000000
    1.5 B1u   1  2pz          7.610920    -0.008071
                              4.581784    -0.012332
                              2.758240    -0.061298
                              1.660464     0.101944
                              0.999601     0.172497
                              0.601761     0.288747
                              0.362261     0.247918
                              0.218082     0.231893
                              0.131285     0.095994
                              0.079034     0.046211
    2.5 B1u   1  2pz          3.848596     1.000000
    3.5 B1u   1  2pz          1.837529     1.000000
    4.5 B1u   1  2pz          0.877336     1.000000
    5.5 B1u   1  2pz          0.418888     1.000000
    6.5 B1u   1  4f0          1.962257     1.000000
    7.5 B1u   1  4f2+         1.962257     1.000000
    8.5 B1u   1  4f0          0.915696     1.000000
    9.5 B1u   1  4f2+         0.915696     1.000000
   10.5 B1u   1  4f0          0.427314     1.000000
   11.5 B1u   1  4f2+         0.427314     1.000000
   12.5 B1u   1  6h2+         1.266388     1.000000
   13.5 B1u   1  6h4+         1.266388     1.000000
   14.5 B1u   1  6h0          1.266388     1.000000
    1.6 B2g   1  3d1+         3.766125     1.000000
    2.6 B2g   1  3d1+         1.581658     1.000000
    3.6 B2g   1  3d1+         0.664248     1.000000
    4.6 B2g   1  3d1+         0.278964     1.000000
    5.6 B2g   1  5g1+         1.608765     1.000000
    6.6 B2g   1  5g3+         1.608765     1.000000
    7.6 B2g   1  5g1+         0.673020     1.000000
    8.6 B2g   1  5g3+         0.673020     1.000000
    1.7 B3g   1  3d1-         3.766125     1.000000
    2.7 B3g   1  3d1-         1.581658     1.000000
    3.7 B3g   1  3d1-         0.664248     1.000000
    4.7 B3g   1  3d1-         0.278964     1.000000
    5.7 B3g   1  5g1-         1.608765     1.000000
    6.7 B3g   1  5g3-         1.608765     1.000000
    7.7 B3g   1  5g1-         0.673020     1.000000
    8.7 B3g   1  5g3-         0.673020     1.000000
    1.8 Au    1  4f2-         1.962257     1.000000
    2.8 Au    1  4f2-         0.915696     1.000000
    3.8 Au    1  4f2-         0.427314     1.000000
    4.8 Au    1  6h4-         1.266388     1.000000
    5.8 Au    1  6h2-         1.266388     1.000000

 NUCLEAR CHARGE:                    8
 NUMBER OF PRIMITIVE AOS:         161
 NUMBER OF SYMMETRY AOS:          126
 NUMBER OF CONTRACTIONS:           90   (  19Ag  +  14B3u +  14B2u +   8B1g +  14B1u +   8B2g +   8B3g +   5Au  )
 NUMBER OF CORE ORBITALS:           0   (   0Ag  +   0B3u +   0B2u +   0B1g +   0B1u +   0B2g +   0B3g +   0Au  )
 NUMBER OF VALENCE ORBITALS:        4   (   1Ag  +   1B3u +   1B2u +   0B1g +   1B1u +   0B2g +   0B3g +   0Au  )


 NUCLEAR REPULSION ENERGY    0.00000000

 EXTRA SYMMETRY OF AOS IN SYMMETRY 1:   1 1 1 1 1 2 3 2 3 2   3 2 3 4 5 6 4 5 6
 EXTRA SYMMETRY OF AOS IN SYMMETRY 2:   1 1 1 1 1 2 3 2 3 2   3 4 5 6
 EXTRA SYMMETRY OF AOS IN SYMMETRY 3:   1 1 1 1 1 2 3 2 3 2   3 4 5 6
 EXTRA SYMMETRY OF AOS IN SYMMETRY 4:   1 1 1 1 2 3 2 3
 EXTRA SYMMETRY OF AOS IN SYMMETRY 5:   1 1 1 1 1 2 3 2 3 2   3 4 5 6
 EXTRA SYMMETRY OF AOS IN SYMMETRY 6:   1 1 1 1 2 3 2 3
 EXTRA SYMMETRY OF AOS IN SYMMETRY 7:   1 1 1 1 2 3 2 3
 EXTRA SYMMETRY OF AOS IN SYMMETRY 8:   1 1 1 2 3

 Eigenvalues of metric

         1 0.762E-03 0.827E-02 0.651E-01 0.651E-01 0.110E+00 0.328E+00 0.328E+00 0.397E+00
         2 0.801E-02 0.289E-01 0.112E+00 0.112E+00 0.170E+00 0.698E+00 0.698E+00 0.100E+01
         3 0.801E-02 0.289E-01 0.112E+00 0.112E+00 0.170E+00 0.698E+00 0.698E+00 0.100E+01
         4 0.651E-01 0.328E+00 0.397E+00 0.397E+00 0.112E+01 0.160E+01 0.160E+01 0.249E+01
         5 0.801E-02 0.289E-01 0.112E+00 0.112E+00 0.170E+00 0.698E+00 0.698E+00 0.100E+01
         6 0.651E-01 0.328E+00 0.397E+00 0.397E+00 0.112E+01 0.160E+01 0.160E+01 0.249E+01
         7 0.651E-01 0.328E+00 0.397E+00 0.397E+00 0.112E+01 0.160E+01 0.160E+01 0.249E+01
         8 0.112E+00 0.698E+00 0.100E+01 0.100E+01 0.219E+01


 Contracted 2-electron integrals neglected if value below      1.0D-12
 AO integral compression algorithm  1   Integral accuracy      1.0D-12

     9.699 MB (compressed) written to integral file ( 69.0%)


 NUMBER OF SORTED TWO-ELECTRON INTEGRALS:    1106050.     BUFFER LENGTH:  32768
 NUMBER OF SEGMENTS:   1  SEGMENT LENGTH:    1106050      RECORD LENGTH: 524288

 Memory used in sort:       1.66 MW

 SORT1 READ     1797248. AND WROTE      785431. INTEGRALS IN      3 RECORDS. CPU TIME:     0.06 SEC, REAL TIME:     0.09 SEC
 SORT2 READ      785431. AND WROTE     1106050. INTEGRALS IN     37 RECORDS. CPU TIME:     0.09 SEC, REAL TIME:     0.16 SEC

 FILE SIZES:   FILE 1:    29.0 MBYTE,  FILE 4:    12.6 MBYTE,   TOTAL:     41.6 MBYTE

 OPERATOR DM      FOR CENTER  0  COORDINATES:    0.000000    0.000000    0.000000
 OPERATOR EKIN    FOR CENTER  0  COORDINATES:    0.000000    0.000000    0.000000
 OPERATOR POT     FOR CENTER  0  COORDINATES:    0.000000    0.000000    0.000000


 **********************************************************************************************************************************
 DATASETS  * FILE   NREC   LENGTH (MB)   RECORD NAMES
              1      20       25.07       500      610      700      900      950      970     1000      129      960     1100   
                                          VAR    BASINP    GEOM    SYMINP    ZMAT    AOBASIS   BASIS     P2S    ABASIS      S 
                                         1400     1410     1420     1200     1210     1080     1600     1650     1300     1700   
                                         EKIN       V       ECP      H0       H01     AOSYM     SMH    MOLCAS    ERIS     OPER   

 PROGRAMS   *        TOTAL       INT
 CPU TIMES  *         0.95      0.83
 REAL TIME  *         2.45 SEC
 DISK USED  *        41.89 MB      
 **********************************************************************************************************************************


 PROGRAM * RHF-SCF (CLOSED SHELL)       Authors: W. Meyer, H.-J. Werner


 NUMBER OF ELECTRONS:       4+    4-    SPACE SYMMETRY=1    SPIN SYMMETRY: Singlet 
 CONVERGENCE THRESHOLDS:    1.00E-05 (Density)    1.00E-07 (Energy)
 MAX. NUMBER OF ITERATIONS:       60
 INTERPOLATION TYPE:            DIIS
 INTERPOLATION STEPS:              2 (START)      1 (STEP)
 LEVEL SHIFTS:                  0.00 (CLOSED)  0.00 (OPEN) 

 Number of closed-shell orbitals:    4 (   1   1   1   0   1   0   0   0 )



   Atom=AR basis=ECP10MWB_GUESS    lmin=0  lmax=1

 Orbital guess generated from atomic densities. Full valence occupancy:    1   1   1   0   1   0   0   0


 Molecular orbital dump at record        2100.2

 ITERATION    DDIFF          GRAD             ENERGY        2-EL.EN.            DIPOLE MOMENTS         DIIS   ORB.
    1      0.000D+00      0.000D+00       -20.77953141     29.265846    0.00000    0.00000    0.00000    0    start
    2      0.000D+00      0.190D-02       -20.77965737     29.350024    0.00000    0.00000    0.00000    1    diag
    3      0.434D-02      0.384D-03       -20.77966272     29.335626    0.00000    0.00000    0.00000    2    diag
    4      0.582D-03      0.256D-04       -20.77966277     29.337069    0.00000    0.00000    0.00000    3    diag
    5      0.943D-04      0.307D-05       -20.77966277     29.337037    0.00000    0.00000    0.00000    4    diag
    6      0.621D-05      0.118D-06       -20.77966277     29.337038    0.00000    0.00000    0.00000    0    orth

 Final occupancy:   1   1   1   0   1   0   0   0

 !RHF STATE 1.1 Energy                -20.779662767419
 Nuclear energy                         0.00000000
 One-electron energy                  -35.44818155
 Two-electron energy                   14.66851879
 Virial quotient                       -2.66545489
 !RHF STATE 1.1 Dipole moment           0.00000000     0.00000000     0.00000000
 Dipole moment /Debye                   0.00000000     0.00000000     0.00000000
 

 !RHF expec          <1.1|EKIN|1.1>     7.795916131877
 
 !RHF expec           <1.1|POT|1.1>    -5.884688890214

 ELECTRON ORBITALS
 =================


   Orb  Occ    Energy  Couls-En    Coefficients

                                   1 1s      1 1s      1 1s      1 1s      1 1s      1 3d0     1 3d2+    1 3d0     1 3d2+    1 3d0  
                                   1 3d2+    1 3d0     1 3d2+    1 5g0     1 5g4+    1 5g2+    1 5g0     1 5g4+    1 5g2+ 

   1.1   2    -1.2848   -6.3077  0.999963 -0.000022  0.000029  0.000032 -0.000007 -0.000000 -0.000000  0.000000  0.000000 -0.000000
                                -0.000000  0.000000  0.000000  0.000000 -0.000000 -0.000000 -0.000000  0.000000  0.000000

                                   1 2px     1 2px     1 2px     1 2px     1 2px     1 4f1+    1 4f3+    1 4f1+    1 4f3+    1 4f1+ 
                                   1 4f3+    1 6h1+    1 6h3+    1 6h5+ 

   1.2   2    -0.5902   -4.8240  0.999988 -0.000004  0.000007 -0.000002  0.000012 -0.000000  0.000000 -0.000000 -0.000000  0.000000
                                 0.000000 -0.000000 -0.000000 -0.000000

                                   1 2py     1 2py     1 2py     1 2py     1 2py     1 4f1-    1 4f3-    1 4f1-    1 4f3-    1 4f1- 
                                   1 4f3-    1 6h1-    1 6h3-    1 6h5- 

   1.3   2    -0.5902   -4.8240  0.999988 -0.000004  0.000007 -0.000002  0.000012 -0.000000 -0.000000  0.000000  0.000000 -0.000000
                                -0.000000 -0.000000 -0.000000 -0.000000

                                   1 2pz     1 2pz     1 2pz     1 2pz     1 2pz     1 4f0     1 4f2+    1 4f0     1 4f2+    1 4f0  
                                   1 4f2+    1 6h2+    1 6h4+    1 6h0  

   1.5   2    -0.5902   -4.8240  0.999988 -0.000004  0.000007 -0.000002  0.000012  0.000000  0.000000 -0.000000  0.000000  0.000000
                                 0.000000 -0.000000 -0.000000 -0.000000

 HOMO      1.2    -0.590243 =     -16.0613eV
 LUMO      2.1     0.372812 =      10.1447eV
 LUMO-HOMO         0.963055 =      26.2061eV


 **********************************************************************************************************************************
 DATASETS  * FILE   NREC   LENGTH (MB)   RECORD NAMES
              1      20       25.07       500      610      700      900      950      970     1000      129      960     1100   
                                          VAR    BASINP    GEOM    SYMINP    ZMAT    AOBASIS   BASIS     P2S    ABASIS      S 
                                         1400     1410     1420     1200     1210     1080     1600     1650     1300     1700   
                                         EKIN       V       ECP      H0       H01     AOSYM     SMH    MOLCAS    ERIS     OPER   

              2       4        2.78       700     1000      520     2100   
                                         GEOM     BASIS   MCVARS     RHF  

 PROGRAMS   *        TOTAL        HF       INT
 CPU TIMES  *         1.04      0.09      0.83
 REAL TIME  *         2.63 SEC
 DISK USED  *        41.89 MB      
 **********************************************************************************************************************************
 SETTING SCF(I)         =       -20.77966277  AU                              
 SETTING _CC_NORM_MAX   =         2.00000000                                  


 PROGRAM * CCSD (Unrestricted open-shell coupled cluster)     Authors: C. Hampel, H.-J. Werner, 1991, M. Deegan, P.J. Knowles, 1992


 Convergence thresholds:  THRVAR = 1.00D-08  THRDEN = 1.00D-06

 CCSD(T)     terms to be evaluated (factor= 1.000)


 Number of closed-shell orbitals:   4 (   1   1   1   0   1   0   0   0 )
 Number of external orbitals:      86 (  18  13  13   8  13   8   8   5 )

 Memory could be reduced to 1.24 Mwords without degradation in triples

 Number of N-1 electron functions:               8
 Number of N-2 electron functions:              28
 Number of singly external CSFs:               114
 Number of doubly external CSFs:             20824
 Total number of CSFs:                       20938

 Molecular orbitals read from record     2100.2  Type=RHF/CANONICAL (state 1.1)

 Integral transformation finished. Total CPU:   0.01 sec, npass=  1  Memory used:   0.21 MW

 Starting RMP2 calculation

 ITER.      SQ.NORM     CORR.ENERGY   TOTAL ENERGY   ENERGY CHANGE        DEN1      VAR(S)    VAR(P)  DIIS     TIME
   1      1.07117247    -0.25566023   -21.03532300    -0.25566023    -0.00078408  0.12D-15  0.27D-03  1  1     0.02
   2      1.07179250    -0.25649681   -21.03615958    -0.00083658    -0.00000030  0.31D-18  0.97D-07  2  2     0.02
   3      1.07179975    -0.25650258   -21.03616535    -0.00000577    -0.00000000  0.13D-20  0.26D-10  3  3     0.03
   4      1.07179978    -0.25650259   -21.03616535    -0.00000000    -0.00000000  0.76D-23  0.88D-14  4  4     0.03

 Norm of t1 vector:      0.00000013      S-energy:    -0.00000000      T1 diagnostic:  0.00000003
 Norm of t2 vector:      0.26795481      P-energy:    -0.25650259
                                         Alpha-Beta:  -0.19786787
                                         Alpha-Alpha: -0.02931736
                                         Beta-Beta:   -0.02931736

 Spin contamination <S**2-Sz**2-Sz>     0.00000000
  Reference energy                    -20.779662767419
  RHF-RMP2 correlation energy          -0.256502585913
 !RHF-RMP2 energy                     -21.036165353332

 Starting UCCSD calculation

 ITER.      SQ.NORM     CORR.ENERGY   TOTAL ENERGY   ENERGY CHANGE        DEN1      VAR(S)    VAR(P)  DIIS     TIME
   1      1.07783417    -0.26624524   -21.04590801    -0.26624524    -0.00526712  0.21D-03  0.12D-02  1  1     0.06
   2      1.08196960    -0.27185169   -21.05151446    -0.00560645    -0.00012204  0.16D-05  0.32D-04  2  2     0.10
   3      1.08244968    -0.27225847   -21.05192124    -0.00040678    -0.00000593  0.37D-06  0.15D-05  3  3     0.14
   4      1.08253628    -0.27231385   -21.05197661    -0.00005538    -0.00000029  0.97D-08  0.84D-07  4  4     0.17
   5      1.08255585    -0.27232474   -21.05198751    -0.00001090    -0.00000001  0.14D-08  0.16D-08  5  5     0.20
   6      1.08255589    -0.27232411   -21.05198688     0.00000063    -0.00000000  0.81D-10  0.81D-10  6  6     0.24

 Norm of t1 vector:      0.01692639      S-energy:     0.00000000      T1 diagnostic:  0.00423160
                                                                       D1 diagnostic:  0.00642958
 Norm of t2 vector:      0.28682641      P-energy:    -0.27232411
                                         Alpha-Beta:  -0.21606941
                                         Alpha-Alpha: -0.02812735
                                         Beta-Beta:   -0.02812735

 Spin contamination <S**2-Sz**2-Sz>     0.00000000

 Memory could be reduced to 1.22 Mwords without degradation in triples
 

 RESULTS
 =======

  Reference energy                    -20.779662767419
  UCCSD singles energy                  0.000000000429
  UCCSD pair energy                    -0.272324108896
  UCCSD correlation energy             -0.272324108468
  Triples (T) contribution             -0.010624749606
  Total correlation energy             -0.282948858074
 
  RHF-UCCSD energy                    -21.051986875887
  RHF-UCCSD[T] energy                 -21.062677817871
  RHF-UCCSD-T energy                  -21.062598347292
 !RHF-UCCSD(T) energy                 -21.062611625493

 Program statistics:

 Available memory in ccsd:               511999732
 Min. memory needed in ccsd:                 87319
 Max. memory used in ccsd:                  109185
 Max. memory used in cckext:                120215 ( 6 integral passes)
 Max. memory used in cckint:                211967 ( 1 integral passes)



 **********************************************************************************************************************************
 DATASETS  * FILE   NREC   LENGTH (MB)   RECORD NAMES
              1      20       25.07       500      610      700      900      950      970     1000      129      960     1100   
                                          VAR    BASINP    GEOM    SYMINP    ZMAT    AOBASIS   BASIS     P2S    ABASIS      S 
                                         1400     1410     1420     1200     1210     1080     1600     1650     1300     1700   
                                         EKIN       V       ECP      H0       H01     AOSYM     SMH    MOLCAS    ERIS     OPER   

              2       4        2.78       700     1000      520     2100   
                                         GEOM     BASIS   MCVARS     RHF  

 PROGRAMS   *        TOTAL  UCCSD(T)        HF       INT
 CPU TIMES  *         1.51      0.47      0.09      0.83
 REAL TIME  *         4.08 SEC
 DISK USED  *        41.89 MB      
 **********************************************************************************************************************************
 SETTING POSTHF(I)      =       -21.06261163  AU                              
                                                                                                                                                                                                                                                                

        SCF            POSTHF       EKIN          POT
    -20.77966277   -21.06261163   7.79591613   -5.88468889
                                                  

 UCCSD(T)/USERDEF energy=    -21.062611625493

        UCCSD(T)        HF-SCF  
    -21.06261163    -20.77966277
 **********************************************************************************************************************************
 Variable memory released
