
 Primary working directories    : /global/cscratch1/sd/aannabe
 Secondary working directories  : /global/cscratch1/sd/aannabe
 Wavefunction directory         : /global/homes/a/aannabe/wfu/
 Main file repository           : /global/cscratch1/sd/aannabe/

 SHA1      : 2873118e99aab1bc19f5b6fc1784693c06d15c95
 NAME      : 2015.1.8
 ARCHNAME  : linux/x86_64
 FC        : /opt/cray/pe/craype/2.5.5/bin/ftn
 BLASLIB   : -Wl,-_start-group /opt/intel/compilers_and_libraries_2016.3.210/linux/mkl/lib/intel64/libmkl_intel_ilp64.a /opt/intel/compilers_and_libraries_2016.3.210/linux/mkl/lib/intel64/libmkl_intel_thread.a /opt/intel/compilers_and_libraries_2016.3.210/linux/mkl/lib/intel64/libmkl_core.a -Wl,-_end-group
 id        : lbl

 Nodes     nprocs
 nid00473     1

 Using customized tuning parameters: mindgm=8; mindgv=16; mindgc=4; mindgr=1; noblas=0; minvec=7
 default implementation of scratch files=df  

 ***,Ar
 memory,512,m
 gthresh,twoint=1.e-12
 
 gprint,basis,orbitals
 gexpec,ekin,pot
 
 angstrom
 geometry={
 1                                                                               ! Number of atoms
 Ar 0.0 0.0 0.0
 }
 
 basis={
 Including file /global/homes/a/aannabe/docs/totals/pps/Ar.pp
 Including file /global/homes/a/aannabe/docs/totals/basis/cc-pVnZ/Ar_6z.basis
 }
 
 {hf
 wf,8,1,0
 occ,1,1,1,0,1,0,0,0
                                                                                 !open,1.2
 closed,1,1,1,0,1,0,0,0
                                                                                 !sym,
 }
 scf(i)=energy
 
 _CC_NORM_MAX=2.0
 {uccsd(t)
 maxit,100
 core
 }
 posthf(i)=energy
 
 table,scf,posthf,ekin,pot
 save,6.csv,new
 
 

 Variables initialized (889), CPU time= 0.01 sec
 Commands  initialized (702), CPU time= 0.01 sec, 572 directives.
 Default parameters read. Elapsed time= 0.15 sec

 Checking input...
 Passed
1


                                         ***  PROGRAM SYSTEM MOLPRO  ***
                                       Copyright, TTI GmbH Stuttgart, 2015
                                    Version 2015.1 linked Sep  7 2016 23:09:38


 **********************************************************************************************************************************
 LABEL *   Ar                                                                            
  64 bit serial version                                                                  DATE: 08-Oct-18          TIME: 22:49:26  
 **********************************************************************************************************************************

 SHA1:             2873118e99aab1bc19f5b6fc1784693c06d15c95
 **********************************************************************************************************************************

 THRESHOLDS:

 ZERO    =  1.00D-12  ONEINT  =  1.00D-12  TWOINT  =  1.00D-12  PREFAC  =  1.00D-14  LOCALI  =  1.00D-09  EORDER  =  1.00D-04
 ENERGY  =  0.00D+00  ETEST   =  0.00D+00  EDENS   =  0.00D+00  THRDEDEF=  1.00D-06  GRADIENT=  1.00D-02  STEP    =  1.00D-03
 ORBITAL =  1.00D-05  CIVEC   =  1.00D-05  COEFF   =  1.00D-04  PRINTCI =  5.00D-02  PUNCHCI =  9.90D+01  OPTGRAD =  3.00D-04
 OPTENERG=  1.00D-06  OPTSTEP =  3.00D-04  THRGRAD =  1.00D-10  COMPRESS=  1.00D-11  VARMIN  =  1.00D-07  VARMAX  =  1.00D-03
 THRDOUB =  0.00D+00  THRDIV  =  1.00D-05  THRRED  =  1.00D-07  THRPSP  =  1.00D+00  THRDC   =  1.00D-10  THRCS   =  1.00D-10
 THRNRM  =  1.00D-08  THREQ   =  0.00D+00  THRDE   =  1.00D+00  THRREF  =  1.00D-05  SPARFAC =  1.00D+00  THRDLP  =  1.00D-07
 THRDIA  =  1.00D-10  THRDLS  =  1.00D-07  THRGPS  =  0.00D+00  THRKEX  =  0.00D+00  THRDIS  =  2.00D-01  THRVAR  =  1.00D-10
 THRLOC  =  1.00D-06  THRGAP  =  1.00D-06  THRLOCT = -1.00D+00  THRGAPT = -1.00D+00  THRORB  =  1.00D-06  THRMLTP =  0.00D+00
 THRCPQCI=  1.00D-10  KEXTA   =  0.00D+00  THRCOARS=  0.00D+00  SYMTOL  =  1.00D-06  GRADTOL =  1.00D-06  THROVL  =  1.00D-08
 THRORTH =  1.00D-08  GRID    =  1.00D-06  GRIDMAX =  1.00D-03  DTMAX   =  0.00D+00  THROCCDE=  1.00D-01  THROCCDE=  1.00D-01



 ZUNIT=ANG
 

Geometry recognized as XYZ


 Variable memory set to  512000000 words,  buffer space   230000 words

 SETTING BASIS          =    USERDEF


 Recomputing integrals since basis changed


 Using spherical harmonics



 PROGRAM * SEWARD (Integral evaluation for generally contracted gaussian basis sets)     Author: Roland Lindh, 1990

 Geometry written to block  1 of record 700

 Orientation using atomic masses  
 Molecule type: Atom
 Symmetry elements: X,Y,Z
 Rotational constants:       0.0000000      0.0000000      0.0000000 GHz  (calculated with average atomic masses)

 Point group  D2h 



 ATOMIC COORDINATES

 NR  ATOM    CHARGE       X              Y              Z

   1  AR      8.00    0.000000000    0.000000000    0.000000000


          AR  CORE POTENTIAL

          d POTENTIAL

 POWERS             1              3              2
 EXPONENTIALS   8.317181       13.12465       6.503132    
 COEFFICIENTS   8.000000       66.53745      -24.10039    

          s - d POTENTIAL

 POWERS             2              2
 EXPONENTIALS   27.06814       4.801263    
 COEFFICIENTS   18.91015       53.04001    

          p - d POTENTIAL

 POWERS             2              2
 EXPONENTIALS   11.13574       4.126631    
 COEFFICIENTS   8.015534       28.22021    


 BASIS DATA

   Nr Sym  Nuc  Type         Exponents   Contraction coefficients

    1.1 Ag    1  1s          17.798602     0.000155
                             10.185798     0.002011
                              5.829136     0.072819
                              3.335903    -0.297567
                              1.909073    -0.143663
                              1.092526     0.157775
                              0.625231     0.391895
                              0.357808     0.424724
                              0.204767     0.223240
                              0.117184     0.063299
    2.1 Ag    1  1s           0.163172     1.000000
    3.1 Ag    1  1s           0.357134     1.000000
    4.1 Ag    1  1s           0.781658     1.000000
    5.1 Ag    1  1s           1.710813     1.000000
    6.1 Ag    1  1s           3.744451     1.000000
    7.1 Ag    1  3d0          0.232598     1.000000
    8.1 Ag    1  3d2+         0.232598     1.000000
    9.1 Ag    1  3d0          0.483965     1.000000
   10.1 Ag    1  3d2+         0.483965     1.000000
   11.1 Ag    1  3d0          1.006982     1.000000
   12.1 Ag    1  3d2+         1.006982     1.000000
   13.1 Ag    1  3d0          2.095219     1.000000
   14.1 Ag    1  3d2+         2.095219     1.000000
   15.1 Ag    1  3d0          4.359505     1.000000
   16.1 Ag    1  3d2+         4.359505     1.000000
   17.1 Ag    1  5g0          0.544076     1.000000
   18.1 Ag    1  5g4+         0.544076     1.000000
   19.1 Ag    1  5g2+         0.544076     1.000000
   20.1 Ag    1  5g0          1.098105     1.000000
   21.1 Ag    1  5g4+         1.098105     1.000000
   22.1 Ag    1  5g2+         1.098105     1.000000
   23.1 Ag    1  5g0          2.216297     1.000000
   24.1 Ag    1  5g4+         2.216297     1.000000
   25.1 Ag    1  5g2+         2.216297     1.000000
   26.1 Ag    1  7i6+         1.507129     1.000000
   27.1 Ag    1  7i4+         1.507129     1.000000
   28.1 Ag    1  7i2+         1.507129     1.000000
   29.1 Ag    1  7i0          1.507129     1.000000
    1.2 B3u   1  2px          7.610920    -0.008071
                              4.581784    -0.012332
                              2.758240    -0.061298
                              1.660464     0.101944
                              0.999601     0.172497
                              0.601761     0.288747
                              0.362261     0.247918
                              0.218082     0.231893
                              0.131285     0.095994
                              0.079034     0.046211
    2.2 B3u   1  2px          0.106612     1.000000
    3.2 B3u   1  2px          0.223485     1.000000
    4.2 B3u   1  2px          0.468480     1.000000
    5.2 B3u   1  2px          0.982050     1.000000
    6.2 B3u   1  2px          2.058619     1.000000
    7.2 B3u   1  4f1+         0.356321     1.000000
    8.2 B3u   1  4f3+         0.356321     1.000000
    9.2 B3u   1  4f1+         0.680059     1.000000
   10.2 B3u   1  4f3+         0.680059     1.000000
   11.2 B3u   1  4f1+         1.297930     1.000000
   12.2 B3u   1  4f3+         1.297930     1.000000
   13.2 B3u   1  4f1+         2.477172     1.000000
   14.2 B3u   1  4f3+         2.477172     1.000000
   15.2 B3u   1  6h1+         0.891198     1.000000
   16.2 B3u   1  6h3+         0.891198     1.000000
   17.2 B3u   1  6h5+         0.891198     1.000000
   18.2 B3u   1  6h1+         1.890170     1.000000
   19.2 B3u   1  6h3+         1.890170     1.000000
   20.2 B3u   1  6h5+         1.890170     1.000000
    1.3 B2u   1  2py          7.610920    -0.008071
                              4.581784    -0.012332
                              2.758240    -0.061298
                              1.660464     0.101944
                              0.999601     0.172497
                              0.601761     0.288747
                              0.362261     0.247918
                              0.218082     0.231893
                              0.131285     0.095994
                              0.079034     0.046211
    2.3 B2u   1  2py          0.106612     1.000000
    3.3 B2u   1  2py          0.223485     1.000000
    4.3 B2u   1  2py          0.468480     1.000000
    5.3 B2u   1  2py          0.982050     1.000000
    6.3 B2u   1  2py          2.058619     1.000000
    7.3 B2u   1  4f1-         0.356321     1.000000
    8.3 B2u   1  4f3-         0.356321     1.000000
    9.3 B2u   1  4f1-         0.680059     1.000000
   10.3 B2u   1  4f3-         0.680059     1.000000
   11.3 B2u   1  4f1-         1.297930     1.000000
   12.3 B2u   1  4f3-         1.297930     1.000000
   13.3 B2u   1  4f1-         2.477172     1.000000
   14.3 B2u   1  4f3-         2.477172     1.000000
   15.3 B2u   1  6h1-         0.891198     1.000000
   16.3 B2u   1  6h3-         0.891198     1.000000
   17.3 B2u   1  6h5-         0.891198     1.000000
   18.3 B2u   1  6h1-         1.890170     1.000000
   19.3 B2u   1  6h3-         1.890170     1.000000
   20.3 B2u   1  6h5-         1.890170     1.000000
    1.4 B1g   1  3d2-         0.232598     1.000000
    2.4 B1g   1  3d2-         0.483965     1.000000
    3.4 B1g   1  3d2-         1.006982     1.000000
    4.4 B1g   1  3d2-         2.095219     1.000000
    5.4 B1g   1  3d2-         4.359505     1.000000
    6.4 B1g   1  5g2-         0.544076     1.000000
    7.4 B1g   1  5g4-         0.544076     1.000000
    8.4 B1g   1  5g2-         1.098105     1.000000
    9.4 B1g   1  5g4-         1.098105     1.000000
   10.4 B1g   1  5g2-         2.216297     1.000000
   11.4 B1g   1  5g4-         2.216297     1.000000
   12.4 B1g   1  7i2-         1.507129     1.000000
   13.4 B1g   1  7i6-         1.507129     1.000000
   14.4 B1g   1  7i4-         1.507129     1.000000
    1.5 B1u   1  2pz          7.610920    -0.008071
                              4.581784    -0.012332
                              2.758240    -0.061298
                              1.660464     0.101944
                              0.999601     0.172497
                              0.601761     0.288747
                              0.362261     0.247918
                              0.218082     0.231893
                              0.131285     0.095994
                              0.079034     0.046211
    2.5 B1u   1  2pz          0.106612     1.000000
    3.5 B1u   1  2pz          0.223485     1.000000
    4.5 B1u   1  2pz          0.468480     1.000000
    5.5 B1u   1  2pz          0.982050     1.000000
    6.5 B1u   1  2pz          2.058619     1.000000
    7.5 B1u   1  4f0          0.356321     1.000000
    8.5 B1u   1  4f2+         0.356321     1.000000
    9.5 B1u   1  4f0          0.680059     1.000000
   10.5 B1u   1  4f2+         0.680059     1.000000
   11.5 B1u   1  4f0          1.297930     1.000000
   12.5 B1u   1  4f2+         1.297930     1.000000
   13.5 B1u   1  4f0          2.477172     1.000000
   14.5 B1u   1  4f2+         2.477172     1.000000
   15.5 B1u   1  6h2+         0.891198     1.000000
   16.5 B1u   1  6h4+         0.891198     1.000000
   17.5 B1u   1  6h0          0.891198     1.000000
   18.5 B1u   1  6h2+         1.890170     1.000000
   19.5 B1u   1  6h4+         1.890170     1.000000
   20.5 B1u   1  6h0          1.890170     1.000000
    1.6 B2g   1  3d1+         0.232598     1.000000
    2.6 B2g   1  3d1+         0.483965     1.000000
    3.6 B2g   1  3d1+         1.006982     1.000000
    4.6 B2g   1  3d1+         2.095219     1.000000
    5.6 B2g   1  3d1+         4.359505     1.000000
    6.6 B2g   1  5g1+         0.544076     1.000000
    7.6 B2g   1  5g3+         0.544076     1.000000
    8.6 B2g   1  5g1+         1.098105     1.000000
    9.6 B2g   1  5g3+         1.098105     1.000000
   10.6 B2g   1  5g1+         2.216297     1.000000
   11.6 B2g   1  5g3+         2.216297     1.000000
   12.6 B2g   1  7i5+         1.507129     1.000000
   13.6 B2g   1  7i3+         1.507129     1.000000
   14.6 B2g   1  7i1+         1.507129     1.000000
    1.7 B3g   1  3d1-         0.232598     1.000000
    2.7 B3g   1  3d1-         0.483965     1.000000
    3.7 B3g   1  3d1-         1.006982     1.000000
    4.7 B3g   1  3d1-         2.095219     1.000000
    5.7 B3g   1  3d1-         4.359505     1.000000
    6.7 B3g   1  5g1-         0.544076     1.000000
    7.7 B3g   1  5g3-         0.544076     1.000000
    8.7 B3g   1  5g1-         1.098105     1.000000
    9.7 B3g   1  5g3-         1.098105     1.000000
   10.7 B3g   1  5g1-         2.216297     1.000000
   11.7 B3g   1  5g3-         2.216297     1.000000
   12.7 B3g   1  7i5-         1.507129     1.000000
   13.7 B3g   1  7i3-         1.507129     1.000000
   14.7 B3g   1  7i1-         1.507129     1.000000
    1.8 Au    1  4f2-         0.356321     1.000000
    2.8 Au    1  4f2-         0.680059     1.000000
    3.8 Au    1  4f2-         1.297930     1.000000
    4.8 Au    1  4f2-         2.477172     1.000000
    5.8 Au    1  6h4-         0.891198     1.000000
    6.8 Au    1  6h2-         0.891198     1.000000
    7.8 Au    1  6h4-         1.890170     1.000000
    8.8 Au    1  6h2-         1.890170     1.000000

 NUCLEAR CHARGE:                    8
 NUMBER OF PRIMITIVE AOS:         245
 NUMBER OF SYMMETRY AOS:          175
 NUMBER OF CONTRACTIONS:          139   (  29Ag  +  20B3u +  20B2u +  14B1g +  20B1u +  14B2g +  14B3g +   8Au  )
 NUMBER OF CORE ORBITALS:           0   (   0Ag  +   0B3u +   0B2u +   0B1g +   0B1u +   0B2g +   0B3g +   0Au  )
 NUMBER OF VALENCE ORBITALS:        4   (   1Ag  +   1B3u +   1B2u +   0B1g +   1B1u +   0B2g +   0B3g +   0Au  )


 NUCLEAR REPULSION ENERGY    0.00000000

 EXTRA SYMMETRY OF AOS IN SYMMETRY 1:   1 1 1 1 1 1 2 3 2 3   2 3 2 3 2 3 4 5 6 4   5 6 4 5 6 7 8 910
 EXTRA SYMMETRY OF AOS IN SYMMETRY 2:   1 1 1 1 1 1 2 3 2 3   2 3 2 3 4 5 6 4 5 6
 EXTRA SYMMETRY OF AOS IN SYMMETRY 3:   1 1 1 1 1 1 2 3 2 3   2 3 2 3 4 5 6 4 5 6
 EXTRA SYMMETRY OF AOS IN SYMMETRY 4:   1 1 1 1 1 2 3 2 3 2   3 4 5 6
 EXTRA SYMMETRY OF AOS IN SYMMETRY 5:   1 1 1 1 1 1 2 3 2 3   2 3 2 3 4 5 6 4 5 6
 EXTRA SYMMETRY OF AOS IN SYMMETRY 6:   1 1 1 1 1 2 3 2 3 2   3 4 5 6
 EXTRA SYMMETRY OF AOS IN SYMMETRY 7:   1 1 1 1 1 2 3 2 3 2   3 4 5 6
 EXTRA SYMMETRY OF AOS IN SYMMETRY 8:   1 1 1 1 2 3 2 3

 Eigenvalues of metric

         1 0.936E-04 0.393E-02 0.180E-01 0.180E-01 0.354E-01 0.108E+00 0.108E+00 0.118E+00
         2 0.215E-03 0.854E-02 0.293E-01 0.293E-01 0.638E-01 0.226E+00 0.226E+00 0.348E+00
         3 0.215E-03 0.854E-02 0.293E-01 0.293E-01 0.638E-01 0.226E+00 0.226E+00 0.348E+00
         4 0.180E-01 0.108E+00 0.118E+00 0.118E+00 0.457E+00 0.716E+00 0.716E+00 0.100E+01
         5 0.215E-03 0.854E-02 0.293E-01 0.293E-01 0.638E-01 0.226E+00 0.226E+00 0.348E+00
         6 0.180E-01 0.108E+00 0.118E+00 0.118E+00 0.457E+00 0.716E+00 0.716E+00 0.100E+01
         7 0.180E-01 0.108E+00 0.118E+00 0.118E+00 0.457E+00 0.716E+00 0.716E+00 0.100E+01
         8 0.293E-01 0.226E+00 0.362E+00 0.362E+00 0.102E+01 0.164E+01 0.164E+01 0.272E+01


 Contracted 2-electron integrals neglected if value below      1.0D-12
 AO integral compression algorithm  1   Integral accuracy      1.0D-12

     44.827 MB (compressed) written to integral file ( 59.7%)


 NUMBER OF SORTED TWO-ELECTRON INTEGRALS:    6117204.     BUFFER LENGTH:  32768
 NUMBER OF SEGMENTS:   1  SEGMENT LENGTH:    6117204      RECORD LENGTH: 524288

 Memory used in sort:       6.67 MW

 SORT1 READ     9405658. AND WROTE     4069250. INTEGRALS IN     12 RECORDS. CPU TIME:     0.32 SEC, REAL TIME:     0.46 SEC
 SORT2 READ     4069250. AND WROTE     6117204. INTEGRALS IN    171 RECORDS. CPU TIME:     0.26 SEC, REAL TIME:     0.49 SEC

 FILE SIZES:   FILE 1:    64.4 MBYTE,  FILE 4:    50.4 MBYTE,   TOTAL:    114.7 MBYTE

 OPERATOR DM      FOR CENTER  0  COORDINATES:    0.000000    0.000000    0.000000
 OPERATOR EKIN    FOR CENTER  0  COORDINATES:    0.000000    0.000000    0.000000
 OPERATOR POT     FOR CENTER  0  COORDINATES:    0.000000    0.000000    0.000000


 **********************************************************************************************************************************
 DATASETS  * FILE   NREC   LENGTH (MB)   RECORD NAMES
              1      20       48.10       500      610      700      900      950      970     1000      129      960     1100   
                                          VAR    BASINP    GEOM    SYMINP    ZMAT    AOBASIS   BASIS     P2S    ABASIS      S 
                                         1400     1410     1420     1200     1210     1080     1600     1650     1300     1700   
                                         EKIN       V       ECP      H0       H01     AOSYM     SMH    MOLCAS    ERIS     OPER   

 PROGRAMS   *        TOTAL       INT
 CPU TIMES  *         2.79      2.68
 REAL TIME  *         4.80 SEC
 DISK USED  *       115.05 MB      
 **********************************************************************************************************************************


 PROGRAM * RHF-SCF (CLOSED SHELL)       Authors: W. Meyer, H.-J. Werner


 NUMBER OF ELECTRONS:       4+    4-    SPACE SYMMETRY=1    SPIN SYMMETRY: Singlet 
 CONVERGENCE THRESHOLDS:    1.00E-05 (Density)    1.00E-07 (Energy)
 MAX. NUMBER OF ITERATIONS:       60
 INTERPOLATION TYPE:            DIIS
 INTERPOLATION STEPS:              2 (START)      1 (STEP)
 LEVEL SHIFTS:                  0.00 (CLOSED)  0.00 (OPEN) 

 Number of closed-shell orbitals:    4 (   1   1   1   0   1   0   0   0 )



   Atom=AR basis=ECP10MWB_GUESS    lmin=0  lmax=1

 Orbital guess generated from atomic densities. Full valence occupancy:    1   1   1   0   1   0   0   0


 Molecular orbital dump at record        2100.2

 ITERATION    DDIFF          GRAD             ENERGY        2-EL.EN.            DIPOLE MOMENTS         DIIS   ORB.
    1      0.000D+00      0.000D+00       -20.77952738     29.263712    0.00000    0.00000    0.00000    0    start
    2      0.000D+00      0.160D-02       -20.77965709     29.350179    0.00000    0.00000    0.00000    1    diag
    3      0.250D-02      0.322D-03       -20.77966271     29.335441    0.00000    0.00000    0.00000    2    diag
    4      0.291D-03      0.223D-04       -20.77966277     29.337058    0.00000    0.00000    0.00000    3    diag
    5      0.234D-04      0.313D-05       -20.77966277     29.337036    0.00000    0.00000    0.00000    4    diag
    6      0.371D-05      0.161D-06       -20.77966277     29.337037    0.00000    0.00000    0.00000    0    orth

 Final occupancy:   1   1   1   0   1   0   0   0

 !RHF STATE 1.1 Energy                -20.779662767662
 Nuclear energy                         0.00000000
 One-electron energy                  -35.44818148
 Two-electron energy                   14.66851871
 Virial quotient                       -2.66545516
 !RHF STATE 1.1 Dipole moment           0.00000000     0.00000000     0.00000000
 Dipole moment /Debye                   0.00000000     0.00000000     0.00000000
 

 !RHF expec          <1.1|EKIN|1.1>     7.795915349282
 
 !RHF expec           <1.1|POT|1.1>    -5.884689209898

 ELECTRON ORBITALS
 =================


   Orb  Occ    Energy  Couls-En    Coefficients

                                   1 1s      1 1s      1 1s      1 1s      1 1s      1 1s      1 3d0     1 3d2+    1 3d0     1 3d2+ 
                                   1 3d0     1 3d2+    1 3d0     1 3d2+    1 3d0     1 3d2+    1 5g0     1 5g4+    1 5g2+    1 5g0  
                                   1 5g4+    1 5g2+    1 5g0     1 5g4+    1 5g2+    1 7i6+    1 7i4+    1 7i2+    1 7i0  

   1.1   2    -1.2848   -6.3077  0.999975 -0.000003  0.000019  0.000024 -0.000020  0.000002 -0.000000  0.000000  0.000000  0.000000
                                -0.000000 -0.000000  0.000000  0.000000 -0.000000 -0.000000 -0.000000 -0.000000 -0.000000  0.000000
                                 0.000000  0.000000 -0.000000 -0.000000  0.000000 -0.000000 -0.000000  0.000000 -0.000000

                                   1 2px     1 2px     1 2px     1 2px     1 2px     1 2px     1 4f1+    1 4f3+    1 4f1+    1 4f3+ 
                                   1 4f1+    1 4f3+    1 4f1+    1 4f3+    1 6h1+    1 6h3+    1 6h5+    1 6h1+    1 6h3+    1 6h5+ 


   1.2   2    -0.5902   -4.8240  1.000104 -0.000023 -0.000021 -0.000042 -0.000039  0.000008  0.000000 -0.000000 -0.000000  0.000000
                                 0.000000 -0.000000 -0.000000 -0.000000  0.000000 -0.000000  0.000000  0.000000  0.000000 -0.000000

                                   1 2py     1 2py     1 2py     1 2py     1 2py     1 2py     1 4f1-    1 4f3-    1 4f1-    1 4f3- 
                                   1 4f1-    1 4f3-    1 4f1-    1 4f3-    1 6h1-    1 6h3-    1 6h5-    1 6h1-    1 6h3-    1 6h5- 


   1.3   2    -0.5902   -4.8240  1.000104 -0.000023 -0.000021 -0.000042 -0.000039  0.000008  0.000000  0.000000 -0.000000 -0.000000
                                 0.000000  0.000000  0.000000 -0.000000 -0.000000 -0.000000  0.000000  0.000000  0.000000 -0.000000

                                   1 2pz     1 2pz     1 2pz     1 2pz     1 2pz     1 2pz     1 4f0     1 4f2+    1 4f0     1 4f2+ 
                                   1 4f0     1 4f2+    1 4f0     1 4f2+    1 6h2+    1 6h4+    1 6h0     1 6h2+    1 6h4+    1 6h0  


   1.5   2    -0.5902   -4.8240  1.000104 -0.000023 -0.000021 -0.000042 -0.000039  0.000008 -0.000000  0.000000  0.000000 -0.000000
                                -0.000000  0.000000 -0.000000  0.000000 -0.000000  0.000000  0.000000  0.000000 -0.000000  0.000000

 HOMO      1.2    -0.590243 =     -16.0613eV
 LUMO      2.2     0.274696 =       7.4749eV
 LUMO-HOMO         0.864939 =      23.5362eV


 **********************************************************************************************************************************
 DATASETS  * FILE   NREC   LENGTH (MB)   RECORD NAMES
              1      20       48.10       500      610      700      900      950      970     1000      129      960     1100   
                                          VAR    BASINP    GEOM    SYMINP    ZMAT    AOBASIS   BASIS     P2S    ABASIS      S 
                                         1400     1410     1420     1200     1210     1080     1600     1650     1300     1700   
                                         EKIN       V       ECP      H0       H01     AOSYM     SMH    MOLCAS    ERIS     OPER   

              2       4        2.83       700     1000      520     2100   
                                         GEOM     BASIS   MCVARS     RHF  

 PROGRAMS   *        TOTAL        HF       INT
 CPU TIMES  *         3.01      0.22      2.68
 REAL TIME  *         5.09 SEC
 DISK USED  *       115.05 MB      
 **********************************************************************************************************************************
 SETTING SCF(I)         =       -20.77966277  AU                              
 SETTING _CC_NORM_MAX   =         2.00000000                                  


 PROGRAM * CCSD (Unrestricted open-shell coupled cluster)     Authors: C. Hampel, H.-J. Werner, 1991, M. Deegan, P.J. Knowles, 1992


 Convergence thresholds:  THRVAR = 1.00D-08  THRDEN = 1.00D-06

 CCSD(T)     terms to be evaluated (factor= 1.000)


 Number of closed-shell orbitals:   4 (   1   1   1   0   1   0   0   0 )
 Number of external orbitals:     135 (  28  19  19  14  19  14  14   8 )

 Memory could be reduced to 3.77 Mwords without degradation in triples

 Number of N-1 electron functions:               8
 Number of N-2 electron functions:              28
 Number of singly external CSFs:               170
 Number of doubly external CSFs:             51062
 Total number of CSFs:                       51232

 Molecular orbitals read from record     2100.2  Type=RHF/CANONICAL (state 1.1)

 Integral transformation finished. Total CPU:   0.07 sec, npass=  1  Memory used:   0.59 MW

 Starting RMP2 calculation

 ITER.      SQ.NORM     CORR.ENERGY   TOTAL ENERGY   ENERGY CHANGE        DEN1      VAR(S)    VAR(P)  DIIS     TIME
   1      1.07178736    -0.26089591   -21.04055868    -0.26089591    -0.00079255  0.16D-14  0.28D-03  1  1     0.08
   2      1.07242165    -0.26174167   -21.04140444    -0.00084576    -0.00000035  0.12D-16  0.13D-06  2  2     0.08
   3      1.07243001    -0.26174806   -21.04141083    -0.00000639    -0.00000000  0.11D-18  0.86D-10  3  3     0.08
   4      1.07243006    -0.26174807   -21.04141084    -0.00000001    -0.00000000  0.89D-21  0.73D-13  4  4     0.08

 Norm of t1 vector:      0.00000035      S-energy:    -0.00000000      T1 diagnostic:  0.00000009
 Norm of t2 vector:      0.26912834      P-energy:    -0.26174807
                                         Alpha-Beta:  -0.20280104
                                         Alpha-Alpha: -0.02947352
                                         Beta-Beta:   -0.02947352

 Spin contamination <S**2-Sz**2-Sz>     0.00000000
  Reference energy                    -20.779662767662
  RHF-RMP2 correlation energy          -0.261748072084
 !RHF-RMP2 energy                     -21.041410839746

 Starting UCCSD calculation

 ITER.      SQ.NORM     CORR.ENERGY   TOTAL ENERGY   ENERGY CHANGE        DEN1      VAR(S)    VAR(P)  DIIS     TIME
   1      1.07781992    -0.26967263   -21.04933540    -0.26967263    -0.00518429  0.22D-03  0.11D-02  1  1     0.22
   2      1.08189161    -0.27514925   -21.05481202    -0.00547662    -0.00013602  0.18D-05  0.35D-04  2  2     0.35
   3      1.08243489    -0.27563161   -21.05529438    -0.00048236    -0.00000704  0.33D-06  0.19D-05  3  3     0.47
   4      1.08253026    -0.27569193   -21.05535470    -0.00006032    -0.00000031  0.10D-07  0.92D-07  4  4     0.60
   5      1.08255084    -0.27570313   -21.05536590    -0.00001120    -0.00000001  0.15D-08  0.19D-08  5  5     0.73
   6      1.08255120    -0.27570264   -21.05536541     0.00000049    -0.00000000  0.13D-09  0.89D-10  6  6     0.86

 Norm of t1 vector:      0.01700833      S-energy:     0.00000000      T1 diagnostic:  0.00425208
                                                                       D1 diagnostic:  0.00644985
 Norm of t2 vector:      0.28681338      P-energy:    -0.27570265
                                         Alpha-Beta:  -0.21922405
                                         Alpha-Alpha: -0.02823930
                                         Beta-Beta:   -0.02823930

 Spin contamination <S**2-Sz**2-Sz>     0.00000000

 Memory could be reduced to 3.72 Mwords without degradation in triples
 

 RESULTS
 =======

  Reference energy                    -20.779662767662
  UCCSD singles energy                  0.000000001245
  UCCSD pair energy                    -0.275702646045
  UCCSD correlation energy             -0.275702644800
  Triples (T) contribution             -0.010945894512
  Total correlation energy             -0.286648539312
 
  RHF-UCCSD energy                    -21.055365412462
  RHF-UCCSD[T] energy                 -21.066377773644
  RHF-UCCSD-T energy                  -21.066299049859
 !RHF-UCCSD(T) energy                 -21.066311306974

 Program statistics:

 Available memory in ccsd:               511999732
 Min. memory needed in ccsd:                208745
 Max. memory used in ccsd:                  262967
 Max. memory used in cckext:                240009 ( 6 integral passes)
 Max. memory used in cckint:                591917 ( 1 integral passes)



 **********************************************************************************************************************************
 DATASETS  * FILE   NREC   LENGTH (MB)   RECORD NAMES
              1      20       48.10       500      610      700      900      950      970     1000      129      960     1100   
                                          VAR    BASINP    GEOM    SYMINP    ZMAT    AOBASIS   BASIS     P2S    ABASIS      S 
                                         1400     1410     1420     1200     1210     1080     1600     1650     1300     1700   
                                         EKIN       V       ECP      H0       H01     AOSYM     SMH    MOLCAS    ERIS     OPER   

              2       4        2.83       700     1000      520     2100   
                                         GEOM     BASIS   MCVARS     RHF  

 PROGRAMS   *        TOTAL  UCCSD(T)        HF       INT
 CPU TIMES  *         4.52      1.48      0.22      2.68
 REAL TIME  *         7.66 SEC
 DISK USED  *       115.05 MB      
 **********************************************************************************************************************************
 SETTING POSTHF(I)      =       -21.06631131  AU                              
                                                                                                                                                                                                                                                                

        SCF            POSTHF       EKIN          POT
    -20.77966277   -21.06631131   7.79591535   -5.88468921
                                                  

 UCCSD(T)/USERDEF energy=    -21.066311306974

        UCCSD(T)        HF-SCF  
    -21.06631131    -20.77966277
 **********************************************************************************************************************************
 Variable memory released
