
 Primary working directories    : /global/cscratch1/sd/aannabe
 Secondary working directories  : /global/cscratch1/sd/aannabe
 Wavefunction directory         : /global/homes/a/aannabe/wfu/
 Main file repository           : /global/cscratch1/sd/aannabe/

 SHA1      : 2873118e99aab1bc19f5b6fc1784693c06d15c95
 NAME      : 2015.1.8
 ARCHNAME  : linux/x86_64
 FC        : /opt/cray/pe/craype/2.5.5/bin/ftn
 BLASLIB   : -Wl,-_start-group /opt/intel/compilers_and_libraries_2016.3.210/linux/mkl/lib/intel64/libmkl_intel_ilp64.a /opt/intel/compilers_and_libraries_2016.3.210/linux/mkl/lib/intel64/libmkl_intel_thread.a /opt/intel/compilers_and_libraries_2016.3.210/linux/mkl/lib/intel64/libmkl_core.a -Wl,-_end-group
 id        : lbl

 Nodes     nprocs
 nid00484     1

 Using customized tuning parameters: mindgm=8; mindgv=16; mindgc=4; mindgr=1; noblas=0; minvec=7
 default implementation of scratch files=df  

 ***,Si
 memory,512,m
 gthresh,twoint=1.e-12
 
 gprint,basis,orbitals
 gexpec,ekin,pot
 
 angstrom
 geometry={
 1                                                                               ! Number of atoms
 Si 0.0 0.0 0.0
 }
 
 basis={
 Including file /global/homes/a/aannabe/docs/accurate/ccECP_Kh/pps/Si.pp
 Including file /global/homes/a/aannabe/docs/accurate/ccECP_Kh/basis/aug-cc-pVnZ/Si_5z.basis
 }
 
 {rhf
  start,atden
  wf,4,6,2
  occ,1,1,1,0,0,0,0,0
  open,1.2,1.5
  save,4202.2
 }
 {multi
  start,4202.2
  occ,1,1,1,0,1,0,0
  closed,1,0,0,0,0,0,0,0
  wf,4,4,2;state,1
  wf,4,6,2;state,1
  wf,4,7,2;state,1
  natorb,ci,print
  orbital,5202.2
 }
 {rhf,nitord=1,maxit=0
  start,5202.2
  wf,4,6,2
  occ,1,1,1,0,0,0,0,0
  open,1.2,1.5
 }
 
 scf(i)=energy
 
 _CC_NORM_MAX=2.0
 {uccsd(t)
 maxit,100
 core
 }
 posthf(i)=energy
 
 table,scf,posthf,ekin,pot
 save,5.csv,new
 
 

 Variables initialized (889), CPU time= 0.00 sec
 Commands  initialized (702), CPU time= 0.01 sec, 572 directives.
 Default parameters read. Elapsed time= 0.15 sec

 Checking input...
 Passed
1


                                         ***  PROGRAM SYSTEM MOLPRO  ***
                                       Copyright, TTI GmbH Stuttgart, 2015
                                    Version 2015.1 linked Sep  7 2016 23:09:38


 **********************************************************************************************************************************
 LABEL *   Si                                                                            
  64 bit serial version                                                                  DATE: 30-Oct-18          TIME: 13:39:18  
 **********************************************************************************************************************************

 SHA1:             2873118e99aab1bc19f5b6fc1784693c06d15c95
 **********************************************************************************************************************************

 THRESHOLDS:

 ZERO    =  1.00D-12  ONEINT  =  1.00D-12  TWOINT  =  1.00D-12  PREFAC  =  1.00D-14  LOCALI  =  1.00D-09  EORDER  =  1.00D-04
 ENERGY  =  0.00D+00  ETEST   =  0.00D+00  EDENS   =  0.00D+00  THRDEDEF=  1.00D-06  GRADIENT=  1.00D-02  STEP    =  1.00D-03
 ORBITAL =  1.00D-05  CIVEC   =  1.00D-05  COEFF   =  1.00D-04  PRINTCI =  5.00D-02  PUNCHCI =  9.90D+01  OPTGRAD =  3.00D-04
 OPTENERG=  1.00D-06  OPTSTEP =  3.00D-04  THRGRAD =  1.00D-10  COMPRESS=  1.00D-11  VARMIN  =  1.00D-07  VARMAX  =  1.00D-03
 THRDOUB =  0.00D+00  THRDIV  =  1.00D-05  THRRED  =  1.00D-07  THRPSP  =  1.00D+00  THRDC   =  1.00D-10  THRCS   =  1.00D-10
 THRNRM  =  1.00D-08  THREQ   =  0.00D+00  THRDE   =  1.00D+00  THRREF  =  1.00D-05  SPARFAC =  1.00D+00  THRDLP  =  1.00D-07
 THRDIA  =  1.00D-10  THRDLS  =  1.00D-07  THRGPS  =  0.00D+00  THRKEX  =  0.00D+00  THRDIS  =  2.00D-01  THRVAR  =  1.00D-10
 THRLOC  =  1.00D-06  THRGAP  =  1.00D-06  THRLOCT = -1.00D+00  THRGAPT = -1.00D+00  THRORB  =  1.00D-06  THRMLTP =  0.00D+00
 THRCPQCI=  1.00D-10  KEXTA   =  0.00D+00  THRCOARS=  0.00D+00  SYMTOL  =  1.00D-06  GRADTOL =  1.00D-06  THROVL  =  1.00D-08
 THRORTH =  1.00D-08  GRID    =  1.00D-06  GRIDMAX =  1.00D-03  DTMAX   =  0.00D+00  THROCCDE=  1.00D-01  THROCCDE=  1.00D-01



 ZUNIT=ANG
 

Geometry recognized as XYZ


 Variable memory set to  512000000 words,  buffer space   230000 words

 SETTING BASIS          =    USERDEF


 Recomputing integrals since basis changed


 Using spherical harmonics



 PROGRAM * SEWARD (Integral evaluation for generally contracted gaussian basis sets)     Author: Roland Lindh, 1990

 Geometry written to block  1 of record 700

 Orientation using atomic masses  
 Molecule type: Atom
 Symmetry elements: X,Y,Z
 Rotational constants:       0.0000000      0.0000000      0.0000000 GHz  (calculated with average atomic masses)

 Point group  D2h 



 ATOMIC COORDINATES

 NR  ATOM    CHARGE       X              Y              Z

   1  SI      4.00    0.000000000    0.000000000    0.000000000


          SI  CORE POTENTIAL

          d POTENTIAL

 POWERS             1              3              2
 EXPONENTIALS   5.168316       8.861690       3.933474    
 COEFFICIENTS   4.000000       20.67326      -14.81817    

          s - d POTENTIAL

 POWERS             2              2
 EXPONENTIALS   9.447023       2.553812    
 COEFFICIENTS   14.83276       26.34966    

          p - d POTENTIAL

 POWERS             2              2
 EXPONENTIALS   3.660001       1.903653    
 COEFFICIENTS   7.621400       10.33158    


 BASIS DATA

   Nr Sym  Nuc  Type         Exponents   Contraction coefficients

    1.1 Ag    1  1s          73.281079    -0.000049
                             33.324684     0.000247
                             15.154451    -0.000773
                              6.891510     0.001491
                              3.133925     0.040107
                              1.425157    -0.280533
                              0.648092    -0.037926
                              0.294721     0.452751
                              0.134025     0.553855
                              0.060948     0.181179
    2.1 Ag    1  1s           1.228857     1.000000
    3.1 Ag    1  1s           0.566944     1.000000
    4.1 Ag    1  1s           0.261564     1.000000
    5.1 Ag    1  1s           0.120675     1.000000
    6.1 Ag    1  1s           0.055674     1.000000
    7.1 Ag    1  3d0          2.346703     1.000000
    8.1 Ag    1  3d2+         2.346703     1.000000
    9.1 Ag    1  3d0          1.069858     1.000000
   10.1 Ag    1  3d2+         1.069858     1.000000
   11.1 Ag    1  3d0          0.487747     1.000000
   12.1 Ag    1  3d2+         0.487747     1.000000
   13.1 Ag    1  3d0          0.222363     1.000000
   14.1 Ag    1  3d2+         0.222363     1.000000
   15.1 Ag    1  3d0          0.101375     1.000000
   16.1 Ag    1  3d2+         0.101375     1.000000
   17.1 Ag    1  5g0          0.889897     1.000000
   18.1 Ag    1  5g4+         0.889897     1.000000
   19.1 Ag    1  5g2+         0.889897     1.000000
   20.1 Ag    1  5g0          0.455567     1.000000
   21.1 Ag    1  5g4+         0.455567     1.000000
   22.1 Ag    1  5g2+         0.455567     1.000000
   23.1 Ag    1  5g0          0.233219     1.000000
   24.1 Ag    1  5g4+         0.233219     1.000000
   25.1 Ag    1  5g2+         0.233219     1.000000
    1.2 B3u   1  2px         24.591585     0.000059
                             11.967156    -0.000277
                              5.823652     0.001636
                              2.834000    -0.001433
                              1.379127    -0.056507
                              0.671133     0.074555
                              0.326598     0.277896
                              0.158934     0.411768
                              0.077343     0.306844
                              0.037638     0.085952
    2.2 B3u   1  2px          0.769898     1.000000
    3.2 B3u   1  2px          0.352046     1.000000
    4.2 B3u   1  2px          0.160977     1.000000
    5.2 B3u   1  2px          0.073609     1.000000
    6.2 B3u   1  2px          0.033659     1.000000
    7.2 B3u   1  4f1+         1.070319     1.000000
    8.2 B3u   1  4f3+         1.070319     1.000000
    9.2 B3u   1  4f1+         0.513329     1.000000
   10.2 B3u   1  4f3+         0.513329     1.000000
   11.2 B3u   1  4f1+         0.246194     1.000000
   12.2 B3u   1  4f3+         0.246194     1.000000
   13.2 B3u   1  4f1+         0.118075     1.000000
   14.2 B3u   1  4f3+         0.118075     1.000000
   15.2 B3u   1  6h1+         0.927763     1.000000
   16.2 B3u   1  6h3+         0.927763     1.000000
   17.2 B3u   1  6h5+         0.927763     1.000000
   18.2 B3u   1  6h1+         0.471940     1.000000
   19.2 B3u   1  6h3+         0.471940     1.000000
   20.2 B3u   1  6h5+         0.471940     1.000000
    1.3 B2u   1  2py         24.591585     0.000059
                             11.967156    -0.000277
                              5.823652     0.001636
                              2.834000    -0.001433
                              1.379127    -0.056507
                              0.671133     0.074555
                              0.326598     0.277896
                              0.158934     0.411768
                              0.077343     0.306844
                              0.037638     0.085952
    2.3 B2u   1  2py          0.769898     1.000000
    3.3 B2u   1  2py          0.352046     1.000000
    4.3 B2u   1  2py          0.160977     1.000000
    5.3 B2u   1  2py          0.073609     1.000000
    6.3 B2u   1  2py          0.033659     1.000000
    7.3 B2u   1  4f1-         1.070319     1.000000
    8.3 B2u   1  4f3-         1.070319     1.000000
    9.3 B2u   1  4f1-         0.513329     1.000000
   10.3 B2u   1  4f3-         0.513329     1.000000
   11.3 B2u   1  4f1-         0.246194     1.000000
   12.3 B2u   1  4f3-         0.246194     1.000000
   13.3 B2u   1  4f1-         0.118075     1.000000
   14.3 B2u   1  4f3-         0.118075     1.000000
   15.3 B2u   1  6h1-         0.927763     1.000000
   16.3 B2u   1  6h3-         0.927763     1.000000
   17.3 B2u   1  6h5-         0.927763     1.000000
   18.3 B2u   1  6h1-         0.471940     1.000000
   19.3 B2u   1  6h3-         0.471940     1.000000
   20.3 B2u   1  6h5-         0.471940     1.000000
    1.4 B1g   1  3d2-         2.346703     1.000000
    2.4 B1g   1  3d2-         1.069858     1.000000
    3.4 B1g   1  3d2-         0.487747     1.000000
    4.4 B1g   1  3d2-         0.222363     1.000000
    5.4 B1g   1  3d2-         0.101375     1.000000
    6.4 B1g   1  5g2-         0.889897     1.000000
    7.4 B1g   1  5g4-         0.889897     1.000000
    8.4 B1g   1  5g2-         0.455567     1.000000
    9.4 B1g   1  5g4-         0.455567     1.000000
   10.4 B1g   1  5g2-         0.233219     1.000000
   11.4 B1g   1  5g4-         0.233219     1.000000
    1.5 B1u   1  2pz         24.591585     0.000059
                             11.967156    -0.000277
                              5.823652     0.001636
                              2.834000    -0.001433
                              1.379127    -0.056507
                              0.671133     0.074555
                              0.326598     0.277896
                              0.158934     0.411768
                              0.077343     0.306844
                              0.037638     0.085952
    2.5 B1u   1  2pz          0.769898     1.000000
    3.5 B1u   1  2pz          0.352046     1.000000
    4.5 B1u   1  2pz          0.160977     1.000000
    5.5 B1u   1  2pz          0.073609     1.000000
    6.5 B1u   1  2pz          0.033659     1.000000
    7.5 B1u   1  4f0          1.070319     1.000000
    8.5 B1u   1  4f2+         1.070319     1.000000
    9.5 B1u   1  4f0          0.513329     1.000000
   10.5 B1u   1  4f2+         0.513329     1.000000
   11.5 B1u   1  4f0          0.246194     1.000000
   12.5 B1u   1  4f2+         0.246194     1.000000
   13.5 B1u   1  4f0          0.118075     1.000000
   14.5 B1u   1  4f2+         0.118075     1.000000
   15.5 B1u   1  6h2+         0.927763     1.000000
   16.5 B1u   1  6h4+         0.927763     1.000000
   17.5 B1u   1  6h0          0.927763     1.000000
   18.5 B1u   1  6h2+         0.471940     1.000000
   19.5 B1u   1  6h4+         0.471940     1.000000
   20.5 B1u   1  6h0          0.471940     1.000000
    1.6 B2g   1  3d1+         2.346703     1.000000
    2.6 B2g   1  3d1+         1.069858     1.000000
    3.6 B2g   1  3d1+         0.487747     1.000000
    4.6 B2g   1  3d1+         0.222363     1.000000
    5.6 B2g   1  3d1+         0.101375     1.000000
    6.6 B2g   1  5g1+         0.889897     1.000000
    7.6 B2g   1  5g3+         0.889897     1.000000
    8.6 B2g   1  5g1+         0.455567     1.000000
    9.6 B2g   1  5g3+         0.455567     1.000000
   10.6 B2g   1  5g1+         0.233219     1.000000
   11.6 B2g   1  5g3+         0.233219     1.000000
    1.7 B3g   1  3d1-         2.346703     1.000000
    2.7 B3g   1  3d1-         1.069858     1.000000
    3.7 B3g   1  3d1-         0.487747     1.000000
    4.7 B3g   1  3d1-         0.222363     1.000000
    5.7 B3g   1  3d1-         0.101375     1.000000
    6.7 B3g   1  5g1-         0.889897     1.000000
    7.7 B3g   1  5g3-         0.889897     1.000000
    8.7 B3g   1  5g1-         0.455567     1.000000
    9.7 B3g   1  5g3-         0.455567     1.000000
   10.7 B3g   1  5g1-         0.233219     1.000000
   11.7 B3g   1  5g3-         0.233219     1.000000
    1.8 Au    1  4f2-         1.070319     1.000000
    2.8 Au    1  4f2-         0.513329     1.000000
    3.8 Au    1  4f2-         0.246194     1.000000
    4.8 Au    1  4f2-         0.118075     1.000000
    5.8 Au    1  6h4-         0.927763     1.000000
    6.8 Au    1  6h2-         0.927763     1.000000
    7.8 Au    1  6h4-         0.471940     1.000000
    8.8 Au    1  6h2-         0.471940     1.000000

 NUCLEAR CHARGE:                    4
 NUMBER OF PRIMITIVE AOS:         217
 NUMBER OF SYMMETRY AOS:          162
 NUMBER OF CONTRACTIONS:          126   (  25Ag  +  20B3u +  20B2u +  11B1g +  20B1u +  11B2g +  11B3g +   8Au  )
 NUMBER OF CORE ORBITALS:           0   (   0Ag  +   0B3u +   0B2u +   0B1g +   0B1u +   0B2g +   0B3g +   0Au  )
 NUMBER OF VALENCE ORBITALS:        4   (   1Ag  +   1B3u +   1B2u +   0B1g +   1B1u +   0B2g +   0B3g +   0Au  )


 NUCLEAR REPULSION ENERGY    0.00000000

 EXTRA SYMMETRY OF AOS IN SYMMETRY 1:   1 1 1 1 1 1 2 3 2 3   2 3 2 3 2 3 4 5 6 4   5 6 4 5 6
 EXTRA SYMMETRY OF AOS IN SYMMETRY 2:   1 1 1 1 1 1 2 3 2 3   2 3 2 3 4 5 6 4 5 6
 EXTRA SYMMETRY OF AOS IN SYMMETRY 3:   1 1 1 1 1 1 2 3 2 3   2 3 2 3 4 5 6 4 5 6
 EXTRA SYMMETRY OF AOS IN SYMMETRY 4:   1 1 1 1 1 2 3 2 3 2   3
 EXTRA SYMMETRY OF AOS IN SYMMETRY 5:   1 1 1 1 1 1 2 3 2 3   2 3 2 3 4 5 6 4 5 6
 EXTRA SYMMETRY OF AOS IN SYMMETRY 6:   1 1 1 1 1 2 3 2 3 2   3
 EXTRA SYMMETRY OF AOS IN SYMMETRY 7:   1 1 1 1 1 2 3 2 3 2   3
 EXTRA SYMMETRY OF AOS IN SYMMETRY 8:   1 1 1 1 2 3 2 3

 Eigenvalues of metric

         1 0.370E-04 0.343E-02 0.265E-01 0.265E-01 0.315E-01 0.101E+00 0.101E+00 0.101E+00
         2 0.164E-03 0.118E-01 0.527E-01 0.527E-01 0.779E-01 0.304E+00 0.304E+00 0.305E+00
         3 0.164E-03 0.118E-01 0.527E-01 0.527E-01 0.779E-01 0.304E+00 0.304E+00 0.305E+00
         4 0.265E-01 0.101E+00 0.101E+00 0.136E+00 0.515E+00 0.684E+00 0.684E+00 0.145E+01
         5 0.164E-03 0.118E-01 0.527E-01 0.527E-01 0.779E-01 0.304E+00 0.304E+00 0.305E+00
         6 0.265E-01 0.101E+00 0.101E+00 0.136E+00 0.515E+00 0.684E+00 0.684E+00 0.145E+01
         7 0.265E-01 0.101E+00 0.101E+00 0.136E+00 0.515E+00 0.684E+00 0.684E+00 0.145E+01
         8 0.527E-01 0.304E+00 0.305E+00 0.305E+00 0.111E+01 0.169E+01 0.169E+01 0.254E+01


 Contracted 2-electron integrals neglected if value below      1.0D-12
 AO integral compression algorithm  1   Integral accuracy      1.0D-12

     31.982 MB (compressed) written to integral file ( 57.1%)


 NUMBER OF SORTED TWO-ELECTRON INTEGRALS:    4156552.     BUFFER LENGTH:  32768
 NUMBER OF SEGMENTS:   1  SEGMENT LENGTH:    4156552      RECORD LENGTH: 524288

 Memory used in sort:       4.71 MW

 SORT1 READ     6989366. AND WROTE     2907704. INTEGRALS IN      9 RECORDS. CPU TIME:     0.19 SEC, REAL TIME:     0.29 SEC
 SORT2 READ     2907704. AND WROTE     4156552. INTEGRALS IN    122 RECORDS. CPU TIME:     0.18 SEC, REAL TIME:     0.33 SEC

 FILE SIZES:   FILE 1:    51.4 MBYTE,  FILE 4:    37.8 MBYTE,   TOTAL:     89.2 MBYTE

 OPERATOR DM      FOR CENTER  0  COORDINATES:    0.000000    0.000000    0.000000
 OPERATOR EKIN    FOR CENTER  0  COORDINATES:    0.000000    0.000000    0.000000
 OPERATOR POT     FOR CENTER  0  COORDINATES:    0.000000    0.000000    0.000000


 **********************************************************************************************************************************
 DATASETS  * FILE   NREC   LENGTH (MB)   RECORD NAMES
              1      20       38.53       500      610      700      900      950      970     1000      129      960     1100   
                                          VAR    BASINP    GEOM    SYMINP    ZMAT    AOBASIS   BASIS     P2S    ABASIS      S 
                                         1400     1410     1420     1200     1210     1080     1600     1650     1300     1700   
                                         EKIN       V       ECP      H0       H01     AOSYM     SMH    MOLCAS    ERIS     OPER   

 PROGRAMS   *        TOTAL       INT
 CPU TIMES  *         1.84      1.72
 REAL TIME  *         3.55 SEC
 DISK USED  *        89.53 MB      
 **********************************************************************************************************************************


 PROGRAM * RHF-SCF (OPEN SHELL)       Authors: W. Meyer, H.-J. Werner


 NUMBER OF ELECTRONS:       3+    1-    SPACE SYMMETRY=6    SPIN SYMMETRY: Triplet 
 CONVERGENCE THRESHOLDS:    1.00E-05 (Density)    1.00E-07 (Energy)
 MAX. NUMBER OF ITERATIONS:       60
 INTERPOLATION TYPE:            DIIS
 INTERPOLATION STEPS:              2 (START)      1 (STEP)
 LEVEL SHIFTS:                 -0.60 (CLOSED) -0.30 (OPEN) 


 Singly occupied orbitals:      1.2       1.5

   Atom=SI basis=ECP10MWB_GUESS    lmin=0  lmax=1

 Orbital guess generated from atomic densities. Full valence occupancy:    1   1   1   0   1   0   0   0


 Molecular orbital dump at record        4202.2

 ITERATION    DDIFF          GRAD             ENERGY        2-EL.EN.            DIPOLE MOMENTS         DIIS   ORB.
    1      0.000D+00      0.000D+00        -3.63290542      6.181085    0.00000    0.00000    0.00000    0    start
    2      0.000D+00      0.665D-02        -3.64033585      6.035110    0.00000    0.00000    0.00000    1    diag,B
    3      0.451D-02      0.346D-02        -3.64368121      5.904712    0.00000    0.00000    0.00000    2    diag,B
    4      0.430D-02      0.147D-02        -3.64462270      5.856556    0.00000    0.00000    0.00000    3    diag,B
    5      0.435D-02      0.762D-03        -3.64500820      5.830481    0.00000    0.00000    0.00000    4    diag,B
    6      0.383D-02      0.427D-03        -3.64516271      5.819774    0.00000    0.00000    0.00000    5    diag,B
    7      0.301D-02      0.170D-03        -3.64519186      5.812426    0.00000    0.00000    0.00000    6    fixocc
    8      0.125D-02      0.652D-04        -3.64519597      5.814558    0.00000    0.00000    0.00000    7    diag,B
    9      0.367D-03      0.324D-04        -3.64519708      5.813364    0.00000    0.00000    0.00000    8    diag,B
   10      0.173D-03      0.119D-04        -3.64519719      5.814239    0.00000    0.00000    0.00000    9    orth
   11      0.646D-04      0.460D-05        -3.64519721      5.814057    0.00000    0.00000    0.00000    9    diag,B
   12      0.302D-04      0.147D-05        -3.64519721      5.814139    0.00000    0.00000    0.00000    9    diag,B
   13      0.450D-05      0.385D-06        -3.64519721      5.814144    0.00000    0.00000    0.00000    0    orth

 Final alpha occupancy:   1   1   1   0   0   0   0   0
 Final beta  occupancy:   1   0   1   0   0   0   0   0

 !RHF STATE 1.6 Energy                 -3.645197211128
 Nuclear energy                         0.00000000
 One-electron energy                   -6.55226919
 Two-electron energy                    2.90707198
 Virial quotient                       -2.64831254
 !RHF STATE 1.6 Dipole moment           0.00000000     0.00000000     0.00000000
 Dipole moment /Debye                   0.00000000     0.00000000     0.00000000
 

 !RHF expec          <1.6|EKIN|1.6>     1.376422591125
 
 !RHF expec           <1.6|POT|1.6>    -2.140961612092

 ELECTRON ORBITALS
 =================


   Orb  Occ    Energy  Couls-En    Coefficients

                                   1 1s      1 1s      1 1s      1 1s      1 1s      1 1s      1 3d0     1 3d2+    1 3d0     1 3d2+ 
                                   1 3d0     1 3d2+    1 3d0     1 3d2+    1 3d0     1 3d2+    1 5g0     1 5g4+    1 5g2+    1 5g0  
                                   1 5g4+    1 5g2+    1 5g0     1 5g4+    1 5g2+ 

   1.1   2    -0.3236   -1.9020  0.718714 -0.072828  0.007825  0.135687  0.052835  0.144970 -0.000396 -0.000258  0.000017  0.000283
                                -0.001376 -0.001541  0.005050  0.004256 -0.015596 -0.009400 -0.000076 -0.000008 -0.000073  0.000180
                                 0.000039  0.000170 -0.000588 -0.000022 -0.000556

                                   1 2px     1 2px     1 2px     1 2px     1 2px     1 2px     1 4f1+    1 4f3+    1 4f1+    1 4f3+ 
                                   1 4f1+    1 4f3+    1 4f1+    1 4f3+    1 6h1+    1 6h3+    1 6h5+    1 6h1+    1 6h3+    1 6h5+ 


   1.2   +    -0.0635   -1.2337  0.870865  0.004443 -0.014930  0.002288  0.004719  0.193824  0.000044  0.000167  0.000984  0.004075
                                 0.001484  0.005745  0.003330  0.015186 -0.000005 -0.000018 -0.000045  0.000031  0.000107  0.000245

                                   1 2py     1 2py     1 2py     1 2py     1 2py     1 2py     1 4f1-    1 4f3-    1 4f1-    1 4f3- 
                                   1 4f1-    1 4f3-    1 4f1-    1 4f3-    1 6h1-    1 6h3-    1 6h5-    1 6h1-    1 6h3-    1 6h5- 


   1.3   2    -0.0137   -1.1263  0.839928  0.011430 -0.044901  0.008528 -0.089281  0.364546 -0.000025 -0.000033  0.004110  0.001837
                                 0.003023  0.001164  0.017068  0.008034 -0.000040 -0.000020 -0.000009  0.000216  0.000105  0.000041

 HOMO      1.3    -0.013704 =      -0.3729eV
 LUMO      1.5     0.168331 =       4.5805eV
 LUMO-HOMO         0.182035 =       4.9534eV


 **********************************************************************************************************************************
 DATASETS  * FILE   NREC   LENGTH (MB)   RECORD NAMES
              1      20       38.53       500      610      700      900      950      970     1000      129      960     1100   
                                          VAR    BASINP    GEOM    SYMINP    ZMAT    AOBASIS   BASIS     P2S    ABASIS      S 
                                         1400     1410     1420     1200     1210     1080     1600     1650     1300     1700   
                                         EKIN       V       ECP      H0       H01     AOSYM     SMH    MOLCAS    ERIS     OPER   

              2       4        2.83       700     1000      520     4202   
                                         GEOM     BASIS   MCVARS     RHF  

 PROGRAMS   *        TOTAL       RHF       INT
 CPU TIMES  *         2.11      0.27      1.72
 REAL TIME  *         4.03 SEC
 DISK USED  *        89.53 MB      
 **********************************************************************************************************************************


 PROGRAM * MULTI (Direct Multiconfiguration SCF)       Authors: P.J. Knowles, H.-J. Werner (1984)     S.T. Elbert (1988)


 Number of closed-shell orbitals:   1 (   1   0   0   0   0   0   0   0 )
 Number of active  orbitals:        3 (   0   1   1   0   1   0   0   0 )
 Number of external orbitals:     122 (  24  19  19  11  19  11  11   8 )

 State symmetry 1

 Number of electrons:     2    Spin symmetry=Triplet   Space symmetry=4
 Number of states:        1
 Number of CSFs:          1   (1 determinants, 3 intermediate states)

 State symmetry 2

 Number of electrons:     2    Spin symmetry=Triplet   Space symmetry=6
 Number of states:        1
 Number of CSFs:          1   (1 determinants, 3 intermediate states)

 State symmetry 3

 Number of electrons:     2    Spin symmetry=Triplet   Space symmetry=7
 Number of states:        1
 Number of CSFs:          1   (1 determinants, 3 intermediate states)

 Molecular orbitals read from record     4202.2  Type=RHF/CANONICAL (state 1.6)
 *** IN SYMMETRY 1 ORBITAL  1 SYMMETRY CONTAMINATION OF 0.340D-01 HAS BEEN REMOVED

 EXTRA SYMMETRY OF MOS IN SYMMETRY 1:   1 1 3 2 2 1 3 4 6 5   2 3 1 4 6 5 2 3 4 6   5 1 2 3 1
 *** IN SYMMETRY 2 ORBITAL  1 SYMMETRY CONTAMINATION OF 0.280D-01 HAS BEEN REMOVED
 EXTRA SYMMETRY OF MOS IN SYMMETRY 2:   1 1 1 2 3 1 2 3 2 3   4 5 6 1 2 3 4 5 6 1
 *** IN SYMMETRY 3 ORBITAL  1 SYMMETRY CONTAMINATION OF 0.256D-01 HAS BEEN REMOVED
 EXTRA SYMMETRY OF MOS IN SYMMETRY 3:   1 1 1 2 3 1 2 3 2 3   4 5 6 1 2 3 4 5 6 1
 EXTRA SYMMETRY OF MOS IN SYMMETRY 4:   1 1 2 3 1 2 3 1 2 3   1
 *** IN SYMMETRY 5 ORBITAL  1 SYMMETRY CONTAMINATION OF 0.136D-01 HAS BEEN REMOVED
 EXTRA SYMMETRY OF MOS IN SYMMETRY 5:   1 1 1 2 3 1 2 3 2 3   6 4 5 1 2 3 6 4 5 1
 EXTRA SYMMETRY OF MOS IN SYMMETRY 6:   1 1 2 3 1 2 3 1 2 3   1
 EXTRA SYMMETRY OF MOS IN SYMMETRY 7:   1 1 2 3 1 2 3 1 2 3   1
 EXTRA SYMMETRY OF MOS IN SYMMETRY 8:   1 1 1 3 2 1 3 2

 Wavefunction dump at record             5202.2

 Convergence thresholds  0.10E-01 (gradient)  0.10E-05 (energy)  0.10E-02 (step length)

 Weight factors for state symmetry  1:    0.33333
 Weight factors for state symmetry  2:    0.33333
 Weight factors for state symmetry  3:    0.33333

 Number of orbital rotations:       81   (     0 Core/Active     24 Core/Virtual   0 Active/Active     57 Active/Virtual)
 Total number of variables:         84


 ITER. MIC  NCI  NEG     ENERGY(VAR)     ENERGY(PROJ)   ENERGY CHANGE     GRAD(0)  GRAD(ORB)   GRAD(CI)     STEP       TIME

   1   45   12    0      -3.56794522      -3.67720870   -0.10926348    0.17410360 0.00000000 0.00000000  0.74D+00      0.05
   2   16   12    0      -3.67192129      -3.67240342   -0.00048213    0.02379344 0.00000000 0.00000000  0.28D-01      0.08
   3   16   12    0      -3.67240581      -3.67240584   -0.00000003    0.00018782 0.00000000 0.00000000  0.25D-03      0.13

 ** WVFN ****  CONVERGENCE REACHED, FINAL GRADIENT:  0.13D-07



 Results for state 1.4
 =====================

 !MCSCF STATE 1.4 Energy               -3.672405837166
 Nuclear energy                         0.00000000
 Kinetic energy                         1.32871612
 One electron energy                   -5.66791726
 Two electron energy                    1.99551142
 Virial ratio                           3.76387544

 !MCSCF STATE 1.4 Dipole moment         0.00000000     0.00000000     0.00000000
 Dipole moment /Debye                   0.00000000     0.00000000     0.00000000



 Results for state 1.6
 =====================

 !MCSCF STATE 1.6 Energy               -3.672405837166
 Nuclear energy                         0.00000000
 Kinetic energy                         1.32871612
 One electron energy                   -5.66791726
 Two electron energy                    1.99551142
 Virial ratio                           3.76387544

 !MCSCF STATE 1.6 Dipole moment         0.00000000     0.00000000     0.00000000
 Dipole moment /Debye                   0.00000000     0.00000000     0.00000000



 Results for state 1.7
 =====================

 !MCSCF STATE 1.7 Energy               -3.672405837166
 Nuclear energy                         0.00000000
 Kinetic energy                         1.32871612
 One electron energy                   -5.66791726
 Two electron energy                    1.99551142
 Virial ratio                           3.76387544

 !MCSCF STATE 1.7 Dipole moment         0.00000000     0.00000000     0.00000000
 Dipole moment /Debye                   0.00000000     0.00000000     0.00000000

 State-averaged charge density matrix saved on record  5202.2 (density set 1)

 !MCSCF expec        <1.4|EKIN|1.4>     1.328716115287
 !MCSCF expec        <1.6|EKIN|1.6>     1.328716115472
 !MCSCF expec        <1.7|EKIN|1.7>     1.328716115471

 !MCSCF expec         <1.4|POT|1.4>    -1.912902284924
 !MCSCF expec         <1.6|POT|1.6>    -1.912902285026
 !MCSCF expec         <1.7|POT|1.7>    -1.912902285027


 NATURAL ORBITALS (state averaged)
 =================================

   Orb     Occ        Energy       Coefficients

                                   1 1s      1 1s      1 1s      1 1s      1 1s      1 1s      1 3d0     1 3d2+    1 3d0     1 3d2+ 
                                   1 3d0     1 3d2+    1 3d0     1 3d2+    1 3d0     1 3d2+    1 5g0     1 5g4+    1 5g2+    1 5g0  
                                   1 5g4+    1 5g2+    1 5g0     1 5g4+    1 5g2+ 

   1.1  2.00000    -0.541470     0.754899 -0.075835  0.017490  0.122969  0.123723  0.031720  0.000000  0.000000  0.000000  0.000000
                                 0.000000  0.000000  0.000000  0.000000  0.000000  0.000000  0.000000  0.000000  0.000000  0.000000
                                 0.000000  0.000000  0.000000  0.000000  0.000000

                                   1 2px     1 2px     1 2px     1 2px     1 2px     1 2px     1 4f1+    1 4f3+    1 4f1+    1 4f3+ 
                                   1 4f1+    1 4f3+    1 4f1+    1 4f3+    1 6h1+    1 6h3+    1 6h5+    1 6h1+    1 6h3+    1 6h5+ 


   1.2  0.66667    -0.066387     0.977816  0.002406  0.005795  0.010189  0.005774  0.001548  0.000000  0.000000  0.000000  0.000000
                                 0.000000  0.000000  0.000000  0.000000  0.000000  0.000000  0.000000  0.000000  0.000000  0.000000

                                   1 2py     1 2py     1 2py     1 2py     1 2py     1 2py     1 4f1-    1 4f3-    1 4f1-    1 4f3- 
                                   1 4f1-    1 4f3-    1 4f1-    1 4f3-    1 6h1-    1 6h3-    1 6h5-    1 6h1-    1 6h3-    1 6h5- 


   1.3  0.66667    -0.066387     0.977816  0.002406  0.005795  0.010189  0.005774  0.001548  0.000000  0.000000  0.000000  0.000000
                                 0.000000  0.000000  0.000000  0.000000  0.000000  0.000000  0.000000  0.000000  0.000000  0.000000

                                   1 2pz     1 2pz     1 2pz     1 2pz     1 2pz     1 2pz     1 4f0     1 4f2+    1 4f0     1 4f2+ 
                                   1 4f0     1 4f2+    1 4f0     1 4f2+    1 6h2+    1 6h4+    1 6h0     1 6h2+    1 6h4+    1 6h0  


   1.5  0.66667    -0.066387     0.977816  0.002406  0.005795  0.010189  0.005774  0.001548  0.000000  0.000000  0.000000  0.000000
                                 0.000000  0.000000  0.000000  0.000000  0.000000  0.000000  0.000000  0.000000  0.000000  0.000000
 

 EXTRA SYMMETRY OF MOS IN SYMMETRY 1:   1 1 3 2 2 3 1 4 6 5   3 2 1 5 6 4 3 2 5 6   4 1 3 2 1
 EXTRA SYMMETRY OF MOS IN SYMMETRY 2:   1 1 1 2 3 1 2 3 3 2   5 6 4 1 3 2 6 5 4 1
 EXTRA SYMMETRY OF MOS IN SYMMETRY 3:   1 1 1 2 3 1 2 3 3 2   5 6 4 1 3 2 6 5 4 1
 EXTRA SYMMETRY OF MOS IN SYMMETRY 4:   1 1 2 3 1 3 2 1 3 2   1
 EXTRA SYMMETRY OF MOS IN SYMMETRY 5:   1 1 1 2 3 1 2 3 3 2   5 4 6 1 3 2 5 4 6 1
 EXTRA SYMMETRY OF MOS IN SYMMETRY 6:   1 1 2 3 1 3 2 1 3 2   1
 EXTRA SYMMETRY OF MOS IN SYMMETRY 7:   1 1 2 3 1 3 2 1 3 2   1
 EXTRA SYMMETRY OF MOS IN SYMMETRY 8:   1 1 1 2 3 1 2 3

 Natural orbital dump (state averaged) at molpro section  5202.2    (Orbital set 2)


 CI vector for state symmetry 1
 ==============================

 a a 0           1.0000000

 TOTAL ENERGIES                        -3.67240584

 CI vector for state symmetry 2
 ==============================

 a 0 a           1.0000000

 TOTAL ENERGIES                        -3.67240584

 CI vector for state symmetry 3
 ==============================

 0 a a           1.0000000

 TOTAL ENERGIES                        -3.67240584



 **********************************************************************************************************************************
 DATASETS  * FILE   NREC   LENGTH (MB)   RECORD NAMES
              1      21       38.82       500      610      700      900      950      970     1000      129      960     1100   
                                          VAR    BASINP    GEOM    SYMINP    ZMAT    AOBASIS   BASIS     P2S    ABASIS      S 
                                         1400     1410     1420     1200     1210     1080     1600     1650     1300     1700   
                                         EKIN       V       ECP      H0       H01     AOSYM     SMH    MOLCAS    ERIS     OPER   
                                         1380   
                                         JKOP   

              2       5        5.40       700     1000      520     4202     5202   
                                         GEOM     BASIS   MCVARS     RHF     MCSCF   

 PROGRAMS   *        TOTAL     MULTI       RHF       INT
 CPU TIMES  *         2.30      0.19      0.27      1.72
 REAL TIME  *         5.06 SEC
 DISK USED  *        89.53 MB      
 **********************************************************************************************************************************


 PROGRAM * RHF-SCF (OPEN SHELL)       Authors: W. Meyer, H.-J. Werner


 NUMBER OF ELECTRONS:       3+    1-    SPACE SYMMETRY=6    SPIN SYMMETRY: Triplet 
 CONVERGENCE THRESHOLDS:    1.00E-05 (Density)    1.00E-07 (Energy)
 MAX. NUMBER OF ITERATIONS:        0
 INTERPOLATION TYPE:            DIIS
 INTERPOLATION STEPS:              2 (START)      1 (STEP)
 LEVEL SHIFTS:                 -0.60 (CLOSED) -0.30 (OPEN) 


 Singly occupied orbitals:      1.2       1.5
 Molecular orbitals read from record     5202.2  Type=MCSCF/NATURAL (state averaged)

 Molecular orbital dump at record        2101.2

 ITERATION    DDIFF          GRAD             ENERGY        2-EL.EN.            DIPOLE MOMENTS         DIIS   ORB.
    1      0.000D+00      0.000D+00        -3.59307400      6.624617    0.00000    0.00000    0.00000    0    start

 Final alpha occupancy:   1   1   1   0   0   0   0   0
 Final beta  occupancy:   1   0   1   0   0   0   0   0

 !RHF STATE 1.6 Energy                 -3.593073996256
 Nuclear energy                         0.00000000
 One-electron energy                   -6.90538248
 Two-electron energy                    3.31230848
 Virial quotient                       -2.09153939
 !RHF STATE 1.6 Dipole moment           0.00000000     0.00000000     0.00000000
 Dipole moment /Debye                   0.00000000     0.00000000     0.00000000
 

 !RHF expec          <1.6|EKIN|1.6>     1.717908831883
 
 !RHF expec           <1.6|POT|1.6>    -2.344768719828

 ELECTRON ORBITALS
 =================


   Orb  Occ    Energy  Couls-En    Coefficients

                                   1 1s      1 1s      1 1s      1 1s      1 1s      1 1s      1 3d0     1 3d2+    1 3d0     1 3d2+ 
                                   1 3d0     1 3d2+    1 3d0     1 3d2+    1 3d0     1 3d2+    1 5g0     1 5g4+    1 5g2+    1 5g0  
                                   1 5g4+    1 5g2+    1 5g0     1 5g4+    1 5g2+ 

   1.1   2    -0.5415   -2.1380  0.754899 -0.075835  0.017490  0.122969  0.123723  0.031720  0.000000  0.000000  0.000000  0.000000
                                 0.000000  0.000000  0.000000  0.000000  0.000000  0.000000  0.000000  0.000000  0.000000  0.000000
                                 0.000000  0.000000  0.000000  0.000000  0.000000

                                   1 2px     1 2px     1 2px     1 2px     1 2px     1 2px     1 4f1+    1 4f3+    1 4f1+    1 4f3+ 
                                   1 4f1+    1 4f3+    1 4f1+    1 4f3+    1 6h1+    1 6h3+    1 6h5+    1 6h1+    1 6h3+    1 6h5+ 


   1.2   +    -0.0664   -1.3039  0.977816  0.002406  0.005795  0.010189  0.005774  0.001548  0.000000  0.000000  0.000000  0.000000
                                 0.000000  0.000000  0.000000  0.000000  0.000000  0.000000  0.000000  0.000000  0.000000  0.000000

                                   1 2py     1 2py     1 2py     1 2py     1 2py     1 2py     1 4f1-    1 4f3-    1 4f1-    1 4f3- 
                                   1 4f1-    1 4f3-    1 4f1-    1 4f3-    1 6h1-    1 6h3-    1 6h5-    1 6h1-    1 6h3-    1 6h5- 


   1.3   2    -0.0664   -1.3039  0.977816  0.002406  0.005795  0.010189  0.005774  0.001548  0.000000  0.000000  0.000000  0.000000
                                 0.000000  0.000000  0.000000  0.000000  0.000000  0.000000  0.000000  0.000000  0.000000  0.000000

 HOMO      1.2    -0.066387 =      -1.8065eV
 LUMO      1.5    -0.066387 =      -1.8065eV
 LUMO-HOMO         0.000000 =       0.0000eV


 **********************************************************************************************************************************
 DATASETS  * FILE   NREC   LENGTH (MB)   RECORD NAMES
              1      21       38.82       500      610      700      900      950      970     1000      129      960     1100   
                                          VAR    BASINP    GEOM    SYMINP    ZMAT    AOBASIS   BASIS     P2S    ABASIS      S 
                                         1400     1410     1420     1200     1210     1080     1600     1650     1300     1700   
                                         EKIN       V       ECP      H0       H01     AOSYM     SMH    MOLCAS    ERIS     OPER   
                                         1380   
                                         JKOP   

              2       6        8.00       700     1000      520     4202     5202     2101   
                                         GEOM     BASIS   MCVARS     RHF     MCSCF     RHF  

 PROGRAMS   *        TOTAL       RHF     MULTI       RHF       INT
 CPU TIMES  *         2.32      0.02      0.19      0.27      1.72
 REAL TIME  *         5.24 SEC
 DISK USED  *        89.53 MB      
 **********************************************************************************************************************************
 SETTING SCF(I)         =        -3.59307400  AU                              
 SETTING _CC_NORM_MAX   =         2.00000000                                  


 PROGRAM * CCSD (Unrestricted open-shell coupled cluster)     Authors: C. Hampel, H.-J. Werner, 1991, M. Deegan, P.J. Knowles, 1992


 NUMBER OF OCCUPIED ORBITALS NOT CONSISTENT WITH NUMBER OF ELECTRONS FOR CCSD. NELEC=   4  NCORE=  0  NCLOS=  2  NOCC=  3  MS2= 2
