----- GAMESS execution script 'rungms' -----
This job is running on host c473-131.stampede2.tacc.utexas.edu
under operating system Linux at Tue Oct 2 06:32:21 CDT 2018
Available scratch disk space (Kbyte units) at beginning of the job is
Filesystem               1K-blocks  Used Available Use% Mounted on
/dev/mapper/rootvg01-tmp 111414116 36488 111377628   1% /tmp
GAMESS temporary binary files will be written to /tmp
GAMESS supplementary output files will be written to /work/04843/aannabe/stampede2/docs/totals/Ar/TZ
Copying input file Ar.inp to your run's scratch directory...

 Distributed Data Interface kickoff program.
 Initiating 1 compute processes on 1 nodes to run the following command:
 /work/04843/aannabe/stampede2/codes/gamess-mcb/gamess/gamess.00.x Ar 

          ******************************************************
          *         GAMESS VERSION =  1 MAY 2013 (R1)          *
          *             FROM IOWA STATE UNIVERSITY             *
          * M.W.SCHMIDT, K.K.BALDRIDGE, J.A.BOATZ, S.T.ELBERT, *
          *   M.S.GORDON, J.H.JENSEN, S.KOSEKI, N.MATSUNAGA,   *
          *          K.A.NGUYEN, S.J.SU, T.L.WINDUS,           *
          *       TOGETHER WITH M.DUPUIS, J.A.MONTGOMERY       *
          *         J.COMPUT.CHEM.  14, 1347-1363(1993)        *
          **************** 64 BIT INTEL VERSION ****************

  SINCE 1993, STUDENTS AND POSTDOCS WORKING AT IOWA STATE UNIVERSITY
  AND ALSO IN THEIR VARIOUS JOBS AFTER LEAVING ISU HAVE MADE IMPORTANT
  CONTRIBUTIONS TO THE CODE:
     IVANA ADAMOVIC, CHRISTINE AIKENS, YURI ALEXEEV, POOJA ARORA,
     ANDREY ASADCHEV, ROB BELL, PRADIPTA BANDYOPADHYAY, JONATHAN BENTZ,
     BRETT BODE, GALINA CHABAN, WEI CHEN, CHEOL HO CHOI, PAUL DAY,
     ALBERT DEFUSCO, TIM DUDLEY, DMITRI FEDOROV, GRAHAM FLETCHER,
     MARK FREITAG, KURT GLAESEMANN, DAN KEMP, GRANT MERRILL,
     NORIYUKI MINEZAWA, JONATHAN MULLIN, TAKESHI NAGATA,
     SEAN NEDD, HEATHER NETZLOFF, BOSILJKA NJEGIC, RYAN OLSON, MIKE PAK,
     JIM SHOEMAKER, LYUDMILA SLIPCHENKO, SAROM SOK, JIE SONG,
     TETSUYA TAKETSUGU, SIMON WEBB, SOOHAENG YOO, FEDERICO ZAHARIEV

  ADDITIONAL CODE HAS BEEN PROVIDED BY COLLABORATORS IN OTHER GROUPS:
     IOWA STATE UNIVERSITY:
          JOE IVANIC, LAIMUTIS BYTAUTAS, KLAUS RUEDENBERG
     UNIVERSITY OF TOKYO: KIMIHIKO HIRAO, TAKAHITO NAKAJIMA,
          TAKAO TSUNEDA, MUNEAKI KAMIYA, SUSUMU YANAGISAWA,
          KIYOSHI YAGI, MAHITO CHIBA, SEIKEN TOKURA, NAOAKI KAWAKAMI
     UNIVERSITY OF AARHUS: FRANK JENSEN
     UNIVERSITY OF IOWA: VISVALDAS KAIRYS, HUI LI
     NATIONAL INST. OF STANDARDS AND TECHNOLOGY: WALT STEVENS, DAVID GARMER
     UNIVERSITY OF PISA: BENEDETTA MENNUCCI, JACOPO TOMASI
     UNIVERSITY OF MEMPHIS: HENRY KURTZ, PRAKASHAN KORAMBATH
     UNIVERSITY OF ALBERTA: TOBY ZENG, MARIUSZ KLOBUKOWSKI
     UNIVERSITY OF NEW ENGLAND: MARK SPACKMAN
     MIE UNIVERSITY: HIROAKI UMEDA
     MICHIGAN STATE UNIVERSITY:
          KAROL KOWALSKI, MARTA WLOCH, JEFFREY GOUR, JESSE LUTZ,
          WEI LI, PIOTR PIECUCH
     UNIVERSITY OF SILESIA: MONIKA MUSIAL, STANISLAW KUCHARSKI
     FACULTES UNIVERSITAIRES NOTRE-DAME DE LA PAIX:
          OLIVIER QUINET, BENOIT CHAMPAGNE
     UNIVERSITY OF CALIFORNIA - SANTA BARBARA: BERNARD KIRTMAN
     INSTITUTE FOR MOLECULAR SCIENCE:
          KAZUYA ISHIMURA, MICHIO KATOUDA, AND SHIGERU NAGASE
     UNIVERSITY OF NOTRE DAME: DAN CHIPMAN
     KYUSHU UNIVERSITY:
          HARUYUKI NAKANO,
          FENG LONG GU, JACEK KORCHOWIEC, MARCIN MAKOWSKI, AND YURIKO AOKI,
          HIROTOSHI MORI AND EISAKU MIYOSHI
     PENNSYLVANIA STATE UNIVERSITY:
          TZVETELIN IORDANOV, CHET SWALINA, JONATHAN SKONE,
          SHARON HAMMES-SCHIFFER
     WASEDA UNIVERSITY:
          MASATO KOBAYASHI, TOMOKO AKAMA, TSUGUKI TOUMA,
          TAKESHI YOSHIKAWA, YASUHIRO IKABATA, HIROMI NAKAI
     NANJING UNIVERSITY: SHUHUA LI
     UNIVERSITY OF NEBRASKA:
          PEIFENG SU, DEJUN SI, NANDUN THELLAMUREGE, YALI WANG, HUI LI
     UNIVERSITY OF ZURICH:
          ROBERTO PEVERATI, KIM BALDRIDGE
     N. COPERNICUS UNIVERSITY AND JACKSON STATE UNIVERSITY:
          MARIA BARYSZ

 EXECUTION OF GAMESS BEGUN Tue Oct  2 06:32:22 2018

            ECHO OF THE FIRST FEW INPUT CARDS -
 INPUT CARD> $CONTRL                                                                        
 INPUT CARD>     SCFTYP=ROHF                                                                
 INPUT CARD>     MULT=1                                                                     
 INPUT CARD>     ICHARG=0                                                                   
 INPUT CARD>     RUNTYP=ENERGY                                                              
 INPUT CARD>     MAXIT=150                                                                  
 INPUT CARD>     ECP=READ                                                                   
 INPUT CARD>     ISPHER=1                                                                   
 INPUT CARD> $END                                                                           
 INPUT CARD>                                                                                
 INPUT CARD> $SYSTEM                                                                        
 INPUT CARD>     KDIAG=3                                                                    
 INPUT CARD> $END                                                                           
 INPUT CARD>                                                                                
 INPUT CARD> $GUESS                                                                         
 INPUT CARD>    GUESS=HUCKEL                                                                
 INPUT CARD> $END                                                                           
 INPUT CARD>                                                                                
 INPUT CARD>                                                                                
 INPUT CARD> $DATA                                                                          
 INPUT CARD>                                                                                
 INPUT CARD>C1                                                                              
 INPUT CARD>Ar 18    0. 0. 0.                                                               
 INPUT CARD>S  10                                                                           
 INPUT CARD>  1 17.798602  0.000155                                                         
 INPUT CARD>  2 10.185798  0.002011                                                         
 INPUT CARD>  3  5.829136  0.072819                                                         
 INPUT CARD>  4  3.335903 -0.297567                                                         
 INPUT CARD>  5  1.909073 -0.143663                                                         
 INPUT CARD>  6  1.092526  0.157775                                                         
 INPUT CARD>  7  0.625231  0.391895                                                         
 INPUT CARD>  8  0.357808  0.424724                                                         
 INPUT CARD>  9  0.204767  0.223240                                                         
 INPUT CARD> 10  0.117184  0.063299                                                         
 INPUT CARD>S   1                                                                           
 INPUT CARD>  1  1.218276  1.000000                                                         
 INPUT CARD>S   1                                                                           
 INPUT CARD>  1  0.225444  1.000000                                                         
 INPUT CARD>P  10                                                                           
 INPUT CARD>  1  7.610920 -0.008071                                                         
 INPUT CARD>  2  4.581784 -0.012332                                                         
 INPUT CARD>  3  2.758240 -0.061298                                                         
 INPUT CARD>  4  1.660464  0.101944                                                         
 INPUT CARD>  5  0.999601  0.172497                                                         
 INPUT CARD>  6  0.601761  0.288747                                                         
 INPUT CARD>  7  0.362261  0.247918                                                         
 INPUT CARD>  8  0.218082  0.231893                                                         
 INPUT CARD>  9  0.131285  0.095994                                                         
 INPUT CARD> 10  0.079034  0.046211                                                         
 INPUT CARD>P   1                                                                           
    1000000 WORDS OF MEMORY AVAILABLE


     RUN TITLE
     ---------
                                                                                 

 THE POINT GROUP OF THE MOLECULE IS C1      
 THE ORDER OF THE PRINCIPAL AXIS IS     0

 ATOM      ATOMIC                      COORDINATES (BOHR)
           CHARGE         X                   Y                   Z
 AR         18.0     0.0000000000        0.0000000000        0.0000000000

          INTERNUCLEAR DISTANCES (ANGS.)
          ------------------------------

                1 AR    

   1 AR      0.0000000  

  * ... LESS THAN  3.000


     ATOMIC BASIS SET
     ----------------
 THE CONTRACTED PRIMITIVE FUNCTIONS HAVE BEEN UNNORMALIZED
 THE CONTRACTED BASIS FUNCTIONS ARE NOW NORMALIZED TO UNITY

  SHELL TYPE  PRIMITIVE        EXPONENT          CONTRACTION COEFFICIENT(S)

 AR        

      1   S       1            17.7986020    0.000154999970
      1   S       2            10.1857980    0.002010999605
      1   S       3             5.8291360    0.072818985714
      1   S       4             3.3359030   -0.297566941621
      1   S       5             1.9090730   -0.143662971815
      1   S       6             1.0925260    0.157774969046
      1   S       7             0.6252310    0.391894923114
      1   S       8             0.3578080    0.424723916674
      1   S       9             0.2047670    0.223239956203
      1   S      10             0.1171840    0.063298987581

      2   S      11             1.2182760    1.000000000000

      3   S      12             0.2254440    1.000000000000

      4   P      13             7.6109200   -0.008070995639
      4   P      14             4.5817840   -0.012331993337
      4   P      15             2.7582400   -0.061297966881
      4   P      16             1.6604640    0.101943944920
      4   P      17             0.9996010    0.172496906800
      4   P      18             0.6017610    0.288746843990
      4   P      19             0.3622610    0.247917866050
      4   P      20             0.2180820    0.231892874708
      4   P      21             0.1312850    0.095993948134
      4   P      22             0.0790340    0.046210975032

      5   P      23             1.1128330    1.000000000000

      6   P      24             0.1780440    1.000000000000

      7   D      25             1.4524940    1.000000000000

      8   D      26             0.4443530    1.000000000000

      9   F      27             0.9134830    1.000000000000

 TOTAL NUMBER OF BASIS SET SHELLS             =    9
 NUMBER OF CARTESIAN GAUSSIAN BASIS FUNCTIONS =   34
 NOTE: THIS RUN WILL RESTRICT THE MO VARIATION SPACE TO SPHERICAL HARMONICS.
 THE NUMBER OF ORBITALS KEPT IN THE VARIATIONAL SPACE WILL BE PRINTED LATER.
 NUMBER OF ELECTRONS                          =   18
 CHARGE OF MOLECULE                           =    0
 SPIN MULTIPLICITY                            =    1
 NUMBER OF OCCUPIED ORBITALS (ALPHA)          =    9
 NUMBER OF OCCUPIED ORBITALS (BETA )          =    9
 TOTAL NUMBER OF ATOMS                        =    1
 THE NUCLEAR REPULSION ENERGY IS        0.0000000000
 NOTE THIS RUN IS USING CORE POTENTIALS, AND THE NUMBER OF ELECTRONS,
 OCCUPIED ORBITALS, AND NUCLEAR REPULSION ENERGY WILL BE ADJUSTED BELOW
 AFTER REMOVAL OF THE CORE CHARGES.

 THIS MOLECULE IS RECOGNIZED AS BEING LINEAR,
 ORBITAL LZ DEGENERACY TOLERANCE ETOLLZ= 1.00E-06

     $CONTRL OPTIONS
     ---------------
 SCFTYP=ROHF         RUNTYP=ENERGY       EXETYP=RUN     
 MPLEVL=       0     CITYP =NONE         CCTYP =NONE         VBTYP =NONE    
 DFTTYP=NONE         TDDFT =NONE    
 MULT  =       1     ICHARG=       0     NZVAR =       0     COORD =UNIQUE  
 PP    =READ         RELWFN=NONE         LOCAL =NONE         NUMGRD=       F
 ISPHER=       1     NOSYM =       0     MAXIT =     150     UNITS =ANGS    
 PLTORB=       F     MOLPLT=       F     AIMPAC=       F     FRIEND=        
 NPRINT=       7     IREST =       0     GEOM  =INPUT   
 NORMF =       0     NORMP =       0     ITOL  =      20     ICUT  =       9
 INTTYP=BEST         GRDTYP=BEST         QMTTOL= 1.0E-06

     $SYSTEM OPTIONS
     ---------------
  REPLICATED MEMORY=     1000000 WORDS (ON EVERY NODE).
 DISTRIBUTED MEMDDI=           0 MILLION WORDS IN AGGREGATE,
 MEMDDI DISTRIBUTED OVER   1 PROCESSORS IS           0 WORDS/PROCESSOR.
 TOTAL MEMORY REQUESTED ON EACH PROCESSOR=     1000000 WORDS.
 TIMLIM=      525600.00 MINUTES, OR     365.0 DAYS.
 PARALL= F  BALTYP=  DLB     KDIAG=    3  COREFL= F
 MXSEQ2=     300 MXSEQ3=     150

          --------------
          ECP POTENTIALS
          --------------

 PARAMETERS FOR "AR-CCECP" ON ATOM    1 WITH ZCORE  10 AND LMAX  2 ARE
 FOR L= 2      COEFF    N           ZETA
    1        8.00000    1        8.31718
    2       66.53745    3       13.12465
    3      -24.10039    2        6.50313
 FOR L= 0      COEFF    N           ZETA
    1       18.91015    2       27.06814
    2       53.04001    2        4.80126
 FOR L= 1      COEFF    N           ZETA
    1        8.01553    2       11.13574
    2       28.22021    2        4.12663

 THE ECP RUN REMOVES   10 CORE ELECTRONS, AND THE SAME NUMBER OF PROTONS.
 NUMBER OF ELECTRONS KEPT IN THE CALCULATION IS =    8
 NUMBER OF OCCUPIED ORBITALS (ALPHA) KEPT IS    =    4
 NUMBER OF OCCUPIED ORBITALS (BETA ) KEPT IS    =    4
 THE ADJUSTED NUCLEAR REPULSION ENERGY=        0.0000000000
          ECP ANGULAR INTS.........     0.01 SECONDS

          ----------------
          PROPERTIES INPUT
          ----------------

     MOMENTS            FIELD           POTENTIAL          DENSITY
 IEMOM =       1   IEFLD =       0   IEPOT =       0   IEDEN =       0
 WHERE =COMASS     WHERE =NUCLEI     WHERE =NUCLEI     WHERE =NUCLEI  
 OUTPUT=BOTH       OUTPUT=BOTH       OUTPUT=BOTH       OUTPUT=BOTH    
 IEMINT=       0   IEFINT=       0                     IEDINT=       0
                                                       MORB  =       0
          EXTRAPOLATION IN EFFECT
          SOSCF IN EFFECT
 ORBITAL PRINTING OPTION: NPREO=     1    34     2     1

     -------------------------------
     INTEGRAL TRANSFORMATION OPTIONS
     -------------------------------
     NWORD  =            0
     CUTOFF = 1.0E-09     MPTRAN =       0
     DIRTRF =       F     AOINTS =DUP     

          ----------------------
          INTEGRAL INPUT OPTIONS
          ----------------------
 NOPK  =       1 NORDER=       0 SCHWRZ=       F

     ------------------------------------------
     THE POINT GROUP IS C1 , NAXIS= 0, ORDER= 1
     ------------------------------------------

 -- VARIATIONAL SPACE WILL BE RESTRICTED TO PURE SPHERICAL HARMONICS ONLY --
 AFTER EXCLUDING CONTAMINANT COMBINATIONS FROM THE CARTESIAN GAUSSIAN BASIS
 SET, THE NUMBER OF SPHERICAL HARMONICS KEPT IN THE VARIATION SPACE IS   29

     DIMENSIONS OF THE SYMMETRY SUBSPACES ARE
 A   =   29

 ..... DONE SETTING UP THE RUN .....
 STEP CPU TIME =     0.13 TOTAL CPU TIME =        0.1 (    0.0 MIN)
 TOTAL WALL CLOCK TIME=        0.4 SECONDS, CPU UTILIZATION IS  32.56%

          ********************
          1 ELECTRON INTEGRALS
          ********************
 TIME TO DO ORDINARY INTEGRALS=      0.00
 TIME TO DO      ECP INTEGRALS=      0.00
 ...... END OF ONE-ELECTRON INTEGRALS ......
 STEP CPU TIME =     0.00 TOTAL CPU TIME =        0.1 (    0.0 MIN)
 TOTAL WALL CLOCK TIME=        0.6 SECONDS, CPU UTILIZATION IS  24.56%

          -------------
          GUESS OPTIONS
          -------------
          GUESS =HUCKEL            NORB  =       0          NORDER=       0
          MIX   =       F          PRTMO =       F          PUNMO =       F
          TOLZ  = 1.0E-08          TOLE  = 1.0E-05
          SYMDEN=       F          PURIFY=       F

 INITIAL GUESS ORBITALS GENERATED BY HUCKEL   ROUTINE.
 HUCKEL GUESS REQUIRES      9416 WORDS.

 STATISTICS FOR GENERATION OF SYMMETRY ORBITAL -Q- MATRIX
 NUMBER OF CARTESIAN ATOMIC ORBITALS=         34
 NUMBER OF SPHERICAL CONTAMINANTS DROPPED=     5
 NUMBER OF LINEARLY DEPENDENT MOS DROPPED=     0
 TOTAL NUMBER OF MOS IN VARIATION SPACE=      29

 SYMMETRIES FOR INITIAL GUESS ORBITALS FOLLOW.  ALPHA SET(S).
     4 ORBITALS ARE OCCUPIED (    0 CORE ORBITALS).
     1=A        2=A        3=A        4=A        5=A        6=A        7=A   
     8=A        9=A       10=A       11=A       12=A       13=A       14=A   

 SYMMETRIES FOR INITIAL GUESS ORBITALS FOLLOW.   BETA SET(S).
     4 ORBITALS ARE OCCUPIED (    0 CORE ORBITALS).
     1=A        2=A        3=A        4=A        5=A        6=A        7=A   
     8=A        9=A       10=A       11=A       12=A       13=A       14=A   
 ...... END OF INITIAL ORBITAL SELECTION ......
 STEP CPU TIME =     0.03 TOTAL CPU TIME =        0.2 (    0.0 MIN)
 TOTAL WALL CLOCK TIME=        0.7 SECONDS, CPU UTILIZATION IS  24.64%

                    ----------------------
                    AO INTEGRAL TECHNOLOGY
                    ----------------------
     S,P,L SHELL ROTATED AXIS INTEGRALS, REPROGRAMMED BY
        KAZUYA ISHIMURA (IMS) AND JOSE SIERRA (SYNSTAR).
     S,P,D,L SHELL ROTATED AXIS INTEGRALS PROGRAMMED BY
        KAZUYA ISHIMURA (INSTITUTE FOR MOLECULAR SCIENCE).
     S,P,D,F,G SHELL TO TOTAL QUARTET ANGULAR MOMENTUM SUM 5,
        ERIC PROGRAM BY GRAHAM FLETCHER (ELORET AND NASA ADVANCED
        SUPERCOMPUTING DIVISION, AMES RESEARCH CENTER).
     S,P,D,F,G,L SHELL GENERAL RYS QUADRATURE PROGRAMMED BY
        MICHEL DUPUIS (PACIFIC NORTHWEST NATIONAL LABORATORY).

          --------------------
          2 ELECTRON INTEGRALS
          --------------------

 THE -PK- OPTION IS OFF, THE INTEGRALS ARE NOT IN SUPERMATRIX FORM.
 STORING   15000 INTEGRALS/RECORD ON DISK, USING 12 BYTES/INTEGRAL.
 TWO ELECTRON INTEGRAL EVALUATION REQUIRES   99145 WORDS OF MEMORY.
 II,JST,KST,LST =  1  1  1  1 NREC =         1 INTLOC =    1
 II,JST,KST,LST =  2  1  1  1 NREC =         1 INTLOC =    2
 II,JST,KST,LST =  3  1  1  1 NREC =         1 INTLOC =    7
 II,JST,KST,LST =  4  1  1  1 NREC =         1 INTLOC =   22
 II,JST,KST,LST =  5  1  1  1 NREC =         1 INTLOC =   67
 II,JST,KST,LST =  6  1  1  1 NREC =         1 INTLOC =  214
 II,JST,KST,LST =  7  1  1  1 NREC =         1 INTLOC =  571
 II,JST,KST,LST =  8  1  1  1 NREC =         1 INTLOC = 2257
 II,JST,KST,LST =  9  1  1  1 NREC =         1 INTLOC = 6628
 TOTAL NUMBER OF NONZERO TWO-ELECTRON INTEGRALS =               24016
          2 INTEGRAL RECORDS WERE STORED ON DISK FILE  8.
  ...... END OF TWO-ELECTRON INTEGRALS .....
 STEP CPU TIME =     0.15 TOTAL CPU TIME =        0.3 (    0.0 MIN)
 TOTAL WALL CLOCK TIME=        0.9 SECONDS, CPU UTILIZATION IS  34.78%

          ---------------------------
                 ROHF SCF CALCULATION
          ---------------------------

     NUCLEAR ENERGY =         0.0000000000
     MAXIT =150     NPUNCH=  2     MULT=  1
     EXTRAP=T  DAMP=F  SHIFT=F  RSTRCT=F  DIIS=F  SOSCF=T
     DENSITY MATRIX CONV=  1.00E-05
     ROHF CANONICALIZATION PARAMETERS
             C-C     O-O     V-V
     ALPHA -0.5000  0.5000  1.5000
     BETA   1.5000  0.5000 -0.5000
     SOSCF WILL OPTIMIZE     100 ORBITAL ROTATION ANGLES. SOGTOL= 2.500E-01
     MEMORY REQUIRED FOR UHF/ROHF ITERS=     41514 WORDS.

 ITER EX      TOTAL ENERGY        E CHANGE  DENSITY CHANGE    ORB. GRAD 
   1  0      -20.7773102328   -20.7773102328   0.171369073   0.000000000
          ---------------START SECOND ORDER SCF---------------
   2  1      -20.7796467792    -0.0023365463   0.008497350   0.005402538
   3  2      -20.7796622359    -0.0000154567   0.002833303   0.000673296
   4  3      -20.7796627620    -0.0000005262   0.000102313   0.000139252
   5  4      -20.7796627671    -0.0000000051   0.000011650   0.000009529
   6  5      -20.7796627671    -0.0000000000   0.000000377   0.000000053
   7  6      -20.7796627671     0.0000000000   0.000000000   0.000000000

          -----------------
          DENSITY CONVERGED
          -----------------
     TIME TO FORM FOCK OPERATORS=       0.0 SECONDS (       0.0 SEC/ITER)
     TIME TO SOLVE SCF EQUATIONS=       0.0 SECONDS (       0.0 SEC/ITER)

 FINAL ROHF ENERGY IS      -20.7796627671 AFTER   7 ITERATIONS

          --------------------
          SPIN SZ   =    0.000
          S-SQUARED =   -0.000
          --------------------

 LZ VALUE ANALYSIS FOR THE MOS
 ----------------------------------------
 MO     1 (    1) HAS LZ(WEIGHT)= 0.00(100.0%) 
 MO     2 (    2) HAS LZ(WEIGHT)=-1.00( 50.0%)  1.00( 50.0%) 
 MO     3 (    2) HAS LZ(WEIGHT)=-1.00( 50.0%)  1.00( 50.0%) 
 MO     4 (    2) HAS LZ(WEIGHT)= 0.00(100.0%) 
 MO     5 (    3) HAS LZ(WEIGHT)=-1.00( 50.0%)  1.00( 50.0%) 
 MO     6 (    3) HAS LZ(WEIGHT)= 0.00(100.0%) 
 MO     7 (    3) HAS LZ(WEIGHT)=-1.00( 50.0%)  1.00( 50.0%) 
 MO     8 (    4) HAS LZ(WEIGHT)=-2.00( 50.0%)  2.00( 50.0%) 
 MO     9 (    4) HAS LZ(WEIGHT)=-1.00( 50.0%)  1.00( 50.0%) 
 MO    10 (    4) HAS LZ(WEIGHT)=-1.00( 50.0%)  1.00( 50.0%) 
 MO    11 (    4) HAS LZ(WEIGHT)=-2.00( 50.0%)  2.00( 50.0%) 
 MO    12 (    4) HAS LZ(WEIGHT)= 0.00(100.0%) 
 MO    13 (    5) HAS LZ(WEIGHT)= 0.00(100.0%) 
 MO    14 (    6) HAS LZ(WEIGHT)=-2.00( 50.0%)  2.00( 50.0%) 
 MO    15 (    6) HAS LZ(WEIGHT)= 0.00(100.0%) 
 MO    16 (    6) HAS LZ(WEIGHT)=-2.00( 50.0%)  2.00( 50.0%) 
 MO    17 (    6) HAS LZ(WEIGHT)=-1.00( 50.0%)  1.00( 50.0%) 
 MO    18 (    6) HAS LZ(WEIGHT)=-1.00( 50.0%)  1.00( 50.0%) 
 MO    19 (    7) HAS LZ(WEIGHT)=-2.00( 50.0%)  2.00( 50.0%) 
 MO    20 (    7) HAS LZ(WEIGHT)= 0.00(100.0%) 
 MO    21 (    7) HAS LZ(WEIGHT)=-3.00( 50.0%)  3.00( 50.0%) 
 MO    22 (    7) HAS LZ(WEIGHT)=-1.00( 50.0%)  1.00( 50.0%) 
 MO    23 (    7) HAS LZ(WEIGHT)=-1.00( 50.0%)  1.00( 50.0%) 
 MO    24 (    7) HAS LZ(WEIGHT)=-2.00( 50.0%)  2.00( 50.0%) 
 MO    25 (    7) HAS LZ(WEIGHT)=-3.00( 50.0%)  3.00( 50.0%) 
 MO    26 (    8) HAS LZ(WEIGHT)=-1.00( 50.0%)  1.00( 50.0%) 
 MO    27 (    8) HAS LZ(WEIGHT)=-1.00( 50.0%)  1.00( 50.0%) 
 MO    28 (    8) HAS LZ(WEIGHT)= 0.00(100.0%) 
 MO    29 (    9) HAS LZ(WEIGHT)= 0.00(100.0%) 

          ------------
          EIGENVECTORS
          ------------

                      1          2          3          4          5
                   -1.2848    -0.5902    -0.5902    -0.5902     0.7170
                     A          A          A          A          A   
    1  AR 1  S    0.999992   0.000000   0.000000   0.000000   0.000000
    2  AR 1  S    0.000000   0.000000   0.000000   0.000000   0.000000
    3  AR 1  S    0.000008   0.000000   0.000000   0.000000   0.000000
    4  AR 1  X    0.000000   1.000008   0.000000   0.000000   0.000000
    5  AR 1  Y    0.000000   0.000000   1.000008   0.000000  -2.044163
    6  AR 1  Z    0.000000   0.000000   0.000000   1.000008   0.000000
    7  AR 1  X    0.000000  -0.000004   0.000000   0.000000   0.000000
    8  AR 1  Y    0.000000   0.000000  -0.000004   0.000000   0.269749
    9  AR 1  Z    0.000000   0.000000   0.000000  -0.000004   0.000000
   10  AR 1  X    0.000000  -0.000005   0.000000   0.000000   0.000000
   11  AR 1  Y    0.000000   0.000000  -0.000005   0.000000   2.155579
   12  AR 1  Z    0.000000   0.000000   0.000000  -0.000005   0.000000
   13  AR 1 XX    0.000000   0.000000   0.000000   0.000000   0.000000
   14  AR 1 YY    0.000000   0.000000   0.000000   0.000000   0.000000
   15  AR 1 ZZ    0.000000   0.000000   0.000000   0.000000   0.000000
   16  AR 1 XY    0.000000   0.000000   0.000000   0.000000   0.000000
   17  AR 1 XZ    0.000000   0.000000   0.000000   0.000000   0.000000
   18  AR 1 YZ    0.000000   0.000000   0.000000   0.000000   0.000000
   19  AR 1 XX    0.000000   0.000000   0.000000   0.000000   0.000000
   20  AR 1 YY    0.000000   0.000000   0.000000   0.000000   0.000000
   21  AR 1 ZZ    0.000000   0.000000   0.000000   0.000000   0.000000
   22  AR 1 XY    0.000000   0.000000   0.000000   0.000000   0.000000
   23  AR 1 XZ    0.000000   0.000000   0.000000   0.000000   0.000000
   24  AR 1 YZ    0.000000   0.000000   0.000000   0.000000   0.000000
   25  AR 1 XXX   0.000000   0.000000   0.000000   0.000000   0.000000
   26  AR 1 YYY   0.000000   0.000000   0.000000   0.000000   0.000000
   27  AR 1 ZZZ   0.000000   0.000000   0.000000   0.000000   0.000000
   28  AR 1 XXY   0.000000   0.000000   0.000000   0.000000   0.000000
   29  AR 1 XXZ   0.000000   0.000000   0.000000   0.000000   0.000000
   30  AR 1 YYX   0.000000   0.000000   0.000000   0.000000   0.000000
   31  AR 1 YYZ   0.000000   0.000000   0.000000   0.000000   0.000000
   32  AR 1 ZZX   0.000000   0.000000   0.000000   0.000000   0.000000
   33  AR 1 ZZY   0.000000   0.000000   0.000000   0.000000   0.000000
   34  AR 1 XYZ   0.000000   0.000000   0.000000   0.000000   0.000000

                      6          7          8          9         10
                    0.7170     0.7170     0.7416     0.7416     0.7416
                     A          A          A          A          A   
    1  AR 1  S    0.000000   0.000000   0.000000   0.000000   0.000000
    2  AR 1  S    0.000000   0.000000   0.000000   0.000000   0.000000
    3  AR 1  S    0.000000   0.000000   0.000000   0.000000   0.000000
    4  AR 1  X    0.000000  -2.044163   0.000000   0.000000   0.000000
    5  AR 1  Y    0.000000   0.000000   0.000000   0.000000   0.000000
    6  AR 1  Z   -2.044163   0.000000   0.000000   0.000000   0.000000
    7  AR 1  X    0.000000   0.269749   0.000000   0.000000   0.000000
    8  AR 1  Y    0.000000   0.000000   0.000000   0.000000   0.000000
    9  AR 1  Z    0.269749   0.000000   0.000000   0.000000   0.000000
   10  AR 1  X    0.000000   2.155579   0.000000   0.000000   0.000000
   11  AR 1  Y    0.000000   0.000000   0.000000   0.000000   0.000000
   12  AR 1  Z    2.155579   0.000000   0.000000   0.000000   0.000000
   13  AR 1 XX    0.000000   0.000000   0.000000   0.000000   0.000000
   14  AR 1 YY    0.000000   0.000000   0.000000   0.000000   0.000000
   15  AR 1 ZZ    0.000000   0.000000   0.000000   0.000000   0.000000
   16  AR 1 XY    0.000000   0.000000   0.215425   0.000000   0.000000
   17  AR 1 XZ    0.000000   0.000000   0.000000   0.215425   0.000000
   18  AR 1 YZ    0.000000   0.000000   0.000000   0.000000   0.215425
   19  AR 1 XX    0.000000   0.000000   0.000000   0.000000   0.000000
   20  AR 1 YY    0.000000   0.000000   0.000000   0.000000   0.000000
   21  AR 1 ZZ    0.000000   0.000000   0.000000   0.000000   0.000000
   22  AR 1 XY    0.000000   0.000000   0.863421   0.000000   0.000000
   23  AR 1 XZ    0.000000   0.000000   0.000000   0.863421   0.000000
   24  AR 1 YZ    0.000000   0.000000   0.000000   0.000000   0.863421
   25  AR 1 XXX   0.000000   0.000000   0.000000   0.000000   0.000000
   26  AR 1 YYY   0.000000   0.000000   0.000000   0.000000   0.000000
   27  AR 1 ZZZ   0.000000   0.000000   0.000000   0.000000   0.000000
   28  AR 1 XXY   0.000000   0.000000   0.000000   0.000000   0.000000
   29  AR 1 XXZ   0.000000   0.000000   0.000000   0.000000   0.000000
   30  AR 1 YYX   0.000000   0.000000   0.000000   0.000000   0.000000
   31  AR 1 YYZ   0.000000   0.000000   0.000000   0.000000   0.000000
   32  AR 1 ZZX   0.000000   0.000000   0.000000   0.000000   0.000000
   33  AR 1 ZZY   0.000000   0.000000   0.000000   0.000000   0.000000
   34  AR 1 XYZ   0.000000   0.000000   0.000000   0.000000   0.000000

                     11         12         13         14         15
                    0.7416     0.7416     1.0276     2.7634     2.7634
                     A          A          A          A          A   
    1  AR 1  S    0.000000   0.000000  -2.308268   0.000000   0.000000
    2  AR 1  S    0.000000   0.000000  -0.747766   0.000000   0.000000
    3  AR 1  S    0.000000   0.000000   2.908565   0.000000   0.000000
    4  AR 1  X    0.000000   0.000000   0.000000   0.000000   0.000000
    5  AR 1  Y    0.000000   0.000000   0.000000   0.000000   0.000000
    6  AR 1  Z    0.000000   0.000000   0.000000   0.000000   0.000000
    7  AR 1  X    0.000000   0.000000   0.000000   0.000000   0.000000
    8  AR 1  Y    0.000000   0.000000   0.000000   0.000000   0.000000
    9  AR 1  Z    0.000000   0.000000   0.000000   0.000000   0.000000
   10  AR 1  X    0.000000   0.000000   0.000000   0.000000   0.000000
   11  AR 1  Y    0.000000   0.000000   0.000000   0.000000   0.000000
   12  AR 1  Z    0.000000   0.000000   0.000000   0.000000   0.000000
   13  AR 1 XX    0.186564  -0.107713   0.000000   1.027993  -0.593512
   14  AR 1 YY   -0.186564  -0.107713   0.000000  -1.027993  -0.593512
   15  AR 1 ZZ    0.000000   0.215425   0.000000   0.000000   1.187024
   16  AR 1 XY    0.000000   0.000000   0.000000   0.000000   0.000000
   17  AR 1 XZ    0.000000   0.000000   0.000000   0.000000   0.000000
   18  AR 1 YZ    0.000000   0.000000   0.000000   0.000000   0.000000
   19  AR 1 XX    0.747744  -0.431710   0.000000  -0.729694   0.421289
   20  AR 1 YY   -0.747744  -0.431710   0.000000   0.729694   0.421289
   21  AR 1 ZZ    0.000000   0.863421   0.000000   0.000000  -0.842578
   22  AR 1 XY    0.000000   0.000000   0.000000   0.000000   0.000000
   23  AR 1 XZ    0.000000   0.000000   0.000000   0.000000   0.000000
   24  AR 1 YZ    0.000000   0.000000   0.000000   0.000000   0.000000
   25  AR 1 XXX   0.000000   0.000000   0.000000   0.000000   0.000000
   26  AR 1 YYY   0.000000   0.000000   0.000000   0.000000   0.000000
   27  AR 1 ZZZ   0.000000   0.000000   0.000000   0.000000   0.000000
   28  AR 1 XXY   0.000000   0.000000   0.000000   0.000000   0.000000
   29  AR 1 XXZ   0.000000   0.000000   0.000000   0.000000   0.000000
   30  AR 1 YYX   0.000000   0.000000   0.000000   0.000000   0.000000
   31  AR 1 YYZ   0.000000   0.000000   0.000000   0.000000   0.000000
   32  AR 1 ZZX   0.000000   0.000000   0.000000   0.000000   0.000000
   33  AR 1 ZZY   0.000000   0.000000   0.000000   0.000000   0.000000
   34  AR 1 XYZ   0.000000   0.000000   0.000000   0.000000   0.000000

                     16         17         18         19         20
                    2.7634     2.7634     2.7634     2.9775     2.9775
                     A          A          A          A          A   
    1  AR 1  S    0.000000   0.000000   0.000000   0.000000   0.000000
    2  AR 1  S    0.000000   0.000000   0.000000   0.000000   0.000000
    3  AR 1  S    0.000000   0.000000   0.000000   0.000000   0.000000
    4  AR 1  X    0.000000   0.000000   0.000000   0.000000   0.000000
    5  AR 1  Y    0.000000   0.000000   0.000000   0.000000   0.000000
    6  AR 1  Z    0.000000   0.000000   0.000000   0.000000   0.000000
    7  AR 1  X    0.000000   0.000000   0.000000   0.000000   0.000000
    8  AR 1  Y    0.000000   0.000000   0.000000   0.000000   0.000000
    9  AR 1  Z    0.000000   0.000000   0.000000   0.000000   0.000000
   10  AR 1  X    0.000000   0.000000   0.000000   0.000000   0.000000
   11  AR 1  Y    0.000000   0.000000   0.000000   0.000000   0.000000
   12  AR 1  Z    0.000000   0.000000   0.000000   0.000000   0.000000
   13  AR 1 XX    0.000000   0.000000   0.000000   0.000000   0.000000
   14  AR 1 YY    0.000000   0.000000   0.000000   0.000000   0.000000
   15  AR 1 ZZ    0.000000   0.000000   0.000000   0.000000   0.000000
   16  AR 1 XY    1.187024   0.000000   0.000000   0.000000   0.000000
   17  AR 1 XZ    0.000000   0.000000   1.187024   0.000000   0.000000
   18  AR 1 YZ    0.000000   1.187024   0.000000   0.000000   0.000000
   19  AR 1 XX    0.000000   0.000000   0.000000   0.000000   0.000000
   20  AR 1 YY    0.000000   0.000000   0.000000   0.000000   0.000000
   21  AR 1 ZZ    0.000000   0.000000   0.000000   0.000000   0.000000
   22  AR 1 XY   -0.842578   0.000000   0.000000   0.000000   0.000000
   23  AR 1 XZ    0.000000   0.000000  -0.842578   0.000000   0.000000
   24  AR 1 YZ    0.000000  -0.842578   0.000000   0.000000   0.000000
   25  AR 1 XXX   0.000000   0.000000   0.000000   0.000000   0.000000
   26  AR 1 YYY   0.000000   0.000000   0.000000   0.000000   0.000000
   27  AR 1 ZZZ   0.000000   0.000000   0.000000   0.000000   1.000000
   28  AR 1 XXY   0.000000   0.000000   0.000000   0.000000   0.000000
   29  AR 1 XXZ   0.000000   0.000000   0.000000   0.000000  -0.670820
   30  AR 1 YYX   0.000000   0.000000   0.000000   0.000000   0.000000
   31  AR 1 YYZ   0.000000   0.000000   0.000000   0.000000  -0.670820
   32  AR 1 ZZX   0.000000   0.000000   0.000000   0.000000   0.000000
   33  AR 1 ZZY   0.000000   0.000000   0.000000   0.000000   0.000000
   34  AR 1 XYZ   0.000000   0.000000   0.000000   1.000000   0.000000

                     21         22         23         24         25
                    2.9775     2.9775     2.9775     2.9775     2.9775
                     A          A          A          A          A   
    1  AR 1  S    0.000000   0.000000   0.000000   0.000000   0.000000
    2  AR 1  S    0.000000   0.000000   0.000000   0.000000   0.000000
    3  AR 1  S    0.000000   0.000000   0.000000   0.000000   0.000000
    4  AR 1  X    0.000000   0.000000   0.000000   0.000000   0.000000
    5  AR 1  Y    0.000000   0.000000   0.000000   0.000000   0.000000
    6  AR 1  Z    0.000000   0.000000   0.000000   0.000000   0.000000
    7  AR 1  X    0.000000   0.000000   0.000000   0.000000   0.000000
    8  AR 1  Y    0.000000   0.000000   0.000000   0.000000   0.000000
    9  AR 1  Z    0.000000   0.000000   0.000000   0.000000   0.000000
   10  AR 1  X    0.000000   0.000000   0.000000   0.000000   0.000000
   11  AR 1  Y    0.000000   0.000000   0.000000   0.000000   0.000000
   12  AR 1  Z    0.000000   0.000000   0.000000   0.000000   0.000000
   13  AR 1 XX    0.000000   0.000000   0.000000   0.000000   0.000000
   14  AR 1 YY    0.000000   0.000000   0.000000   0.000000   0.000000
   15  AR 1 ZZ    0.000000   0.000000   0.000000   0.000000   0.000000
   16  AR 1 XY    0.000000   0.000000   0.000000   0.000000   0.000000
   17  AR 1 XZ    0.000000   0.000000   0.000000   0.000000   0.000000
   18  AR 1 YZ    0.000000   0.000000   0.000000   0.000000   0.000000
   19  AR 1 XX    0.000000   0.000000   0.000000   0.000000   0.000000
   20  AR 1 YY    0.000000   0.000000   0.000000   0.000000   0.000000
   21  AR 1 ZZ    0.000000   0.000000   0.000000   0.000000   0.000000
   22  AR 1 XY    0.000000   0.000000   0.000000   0.000000   0.000000
   23  AR 1 XZ    0.000000   0.000000   0.000000   0.000000   0.000000
   24  AR 1 YZ    0.000000   0.000000   0.000000   0.000000   0.000000
   25  AR 1 XXX  -0.790569   0.000000  -0.612372   0.000000   0.000000
   26  AR 1 YYY   0.000000  -0.612372   0.000000   0.000000  -0.790569
   27  AR 1 ZZZ   0.000000   0.000000   0.000000   0.000000   0.000000
   28  AR 1 XXY   0.000000  -0.273861   0.000000   0.000000   1.060660
   29  AR 1 XXZ   0.000000   0.000000   0.000000   0.866025   0.000000
   30  AR 1 YYX   1.060660   0.000000  -0.273861   0.000000   0.000000
   31  AR 1 YYZ   0.000000   0.000000   0.000000  -0.866025   0.000000
   32  AR 1 ZZX   0.000000   0.000000   1.095445   0.000000   0.000000
   33  AR 1 ZZY   0.000000   1.095445   0.000000   0.000000   0.000000
   34  AR 1 XYZ   0.000000   0.000000   0.000000   0.000000   0.000000

                     26         27         28         29
                    4.1204     4.1204     4.1204    15.0691
                     A          A          A          A   
    1  AR 1  S    0.000000   0.000000   0.000000   3.132321
    2  AR 1  S    0.000000   0.000000   0.000000  -1.122000
    3  AR 1  S    0.000000   0.000000   0.000000  -2.473624
    4  AR 1  X    0.000000   4.552352   0.000000   0.000000
    5  AR 1  Y    4.552352   0.000000   0.000000   0.000000
    6  AR 1  Z    0.000000   0.000000   4.552352   0.000000
    7  AR 1  X    0.000000  -2.904656   0.000000   0.000000
    8  AR 1  Y   -2.904656   0.000000   0.000000   0.000000
    9  AR 1  Z    0.000000   0.000000  -2.904656   0.000000
   10  AR 1  X    0.000000  -2.674155   0.000000   0.000000
   11  AR 1  Y   -2.674155   0.000000   0.000000   0.000000
   12  AR 1  Z    0.000000   0.000000  -2.674155   0.000000
   13  AR 1 XX    0.000000   0.000000   0.000000   0.000000
   14  AR 1 YY    0.000000   0.000000   0.000000   0.000000
   15  AR 1 ZZ    0.000000   0.000000   0.000000   0.000000
   16  AR 1 XY    0.000000   0.000000   0.000000   0.000000
   17  AR 1 XZ    0.000000   0.000000   0.000000   0.000000
   18  AR 1 YZ    0.000000   0.000000   0.000000   0.000000
   19  AR 1 XX    0.000000   0.000000   0.000000   0.000000
   20  AR 1 YY    0.000000   0.000000   0.000000   0.000000
   21  AR 1 ZZ    0.000000   0.000000   0.000000   0.000000
   22  AR 1 XY    0.000000   0.000000   0.000000   0.000000
   23  AR 1 XZ    0.000000   0.000000   0.000000   0.000000
   24  AR 1 YZ    0.000000   0.000000   0.000000   0.000000
   25  AR 1 XXX   0.000000   0.000000   0.000000   0.000000
   26  AR 1 YYY   0.000000   0.000000   0.000000   0.000000
   27  AR 1 ZZZ   0.000000   0.000000   0.000000   0.000000
   28  AR 1 XXY   0.000000   0.000000   0.000000   0.000000
   29  AR 1 XXZ   0.000000   0.000000   0.000000   0.000000
   30  AR 1 YYX   0.000000   0.000000   0.000000   0.000000
   31  AR 1 YYZ   0.000000   0.000000   0.000000   0.000000
   32  AR 1 ZZX   0.000000   0.000000   0.000000   0.000000
   33  AR 1 ZZY   0.000000   0.000000   0.000000   0.000000
   34  AR 1 XYZ   0.000000   0.000000   0.000000   0.000000
 ...... END OF ROHF CALCULATION ......
 STEP CPU TIME =     0.07 TOTAL CPU TIME =        0.4 (    0.0 MIN)
 TOTAL WALL CLOCK TIME=        1.2 SECONDS, CPU UTILIZATION IS  33.62%

     ----------------------------------------------------------------
     PROPERTY VALUES FOR THE ROHF  SELF-CONSISTENT FIELD WAVEFUNCTION
     ----------------------------------------------------------------

          -----------------
          ENERGY COMPONENTS
          -----------------

         WAVEFUNCTION NORMALIZATION =       1.0000000000

                ONE ELECTRON ENERGY =     -35.4481545686
                TWO ELECTRON ENERGY =      14.6684918015
           NUCLEAR REPULSION ENERGY =       0.0000000000
                                      ------------------
                       TOTAL ENERGY =     -20.7796627671

 ELECTRON-ELECTRON POTENTIAL ENERGY =      14.6684918015
  NUCLEUS-ELECTRON POTENTIAL ENERGY =     -43.2440375071
   NUCLEUS-NUCLEUS POTENTIAL ENERGY =       0.0000000000
                                      ------------------
             TOTAL POTENTIAL ENERGY =     -28.5755457056
               TOTAL KINETIC ENERGY =       7.7958829385
                 VIRIAL RATIO (V/T) =       3.6654662379

          ---------------------------------------
          MULLIKEN AND LOWDIN POPULATION ANALYSES
          ---------------------------------------

     ATOMIC MULLIKEN POPULATION IN EACH MOLECULAR ORBITAL

                      1          2          3          4

                  2.000000   2.000000   2.000000   2.000000

    1             2.000000   2.000000   2.000000   2.000000

          MULLIKEN SPHERICAL HARMONIC POPULATIONS
       ATOM           S       P       D      F      G      H      I    TOTAL
    1 AR            1.00    3.00    0.00   0.00   0.00   0.00   0.00    4.00

          MULLIKEN SPHERICAL HARMONIC POPULATIONS
       ATOM           S       P       D      F      G      H      I    TOTAL
    1 AR            1.00    3.00    0.00   0.00   0.00   0.00   0.00    4.00

     ATOMIC SPIN POPULATION (ALPHA MINUS BETA)
       ATOM         MULL.POP.                    LOW.POP.
    1 AR            0.000000                    -0.000000

               ----- POPULATIONS IN EACH AO -----
                             MULLIKEN      LOWDIN
              1  AR 1  S      1.99998     0.47767
              2  AR 1  S      0.00000     0.09728
              3  AR 1  S      0.00002     0.34858
              4  AR 1  X      2.00002     0.60521
              5  AR 1  Y      2.00002     0.60521
              6  AR 1  Z      2.00002     0.60521
              7  AR 1  X     -0.00001     0.30160
              8  AR 1  Y     -0.00001     0.30160
              9  AR 1  Z     -0.00001     0.30160
             10  AR 1  X     -0.00001     0.45851
             11  AR 1  Y     -0.00001     0.45851
             12  AR 1  Z     -0.00001     0.45851
             13  AR 1 XX      0.00000     0.18173
             14  AR 1 YY      0.00000     0.18173
             15  AR 1 ZZ      0.00000     0.18173
             16  AR 1 XY      0.00000     0.00000
             17  AR 1 XZ      0.00000     0.00000
             18  AR 1 YZ      0.00000     0.00000
             19  AR 1 XX      0.00000     0.17710
             20  AR 1 YY      0.00000     0.17710
             21  AR 1 ZZ      0.00000     0.17710
             22  AR 1 XY      0.00000     0.00000
             23  AR 1 XZ      0.00000     0.00000
             24  AR 1 YZ      0.00000     0.00000
             25  AR 1 XXX     0.00000     0.33605
             26  AR 1 YYY     0.00000     0.33605
             27  AR 1 ZZZ     0.00000     0.33605
             28  AR 1 XXY     0.00000     0.14931
             29  AR 1 XXZ     0.00000     0.14931
             30  AR 1 YYX     0.00000     0.14931
             31  AR 1 YYZ     0.00000     0.14931
             32  AR 1 ZZX     0.00000     0.14931
             33  AR 1 ZZY     0.00000     0.14931
             34  AR 1 XYZ     0.00000     0.00000

          ----- MULLIKEN ATOMIC OVERLAP POPULATIONS -----
          (OFF-DIAGONAL ELEMENTS NEED TO BE MULTIPLIED BY 2)

             1

    1    8.0000000

          TOTAL MULLIKEN AND LOWDIN ATOMIC POPULATIONS
       ATOM         MULL.POP.    CHARGE          LOW.POP.     CHARGE
    1 AR            8.000000    0.000000         8.000000   -0.000000

          MULLIKEN SPHERICAL HARMONIC POPULATIONS
       ATOM           S       P       D      F      G      H      I    TOTAL
    1 AR            2.00    6.00    0.00   0.00   0.00   0.00   0.00    8.00

          -------------------------------
          BOND ORDER AND VALENCE ANALYSIS     BOND ORDER THRESHOLD=0.050
          -------------------------------

                   BOND                       BOND                       BOND
  ATOM PAIR DIST  ORDER      ATOM PAIR DIST  ORDER      ATOM PAIR DIST  ORDER

                       TOTAL       BONDED        FREE
      ATOM            VALENCE     VALENCE     VALENCE
    1 AR               -0.000       0.000      -0.000

          -----------------------------------------
          ATOMIC SPIN DENSITY AT THE NUCLEUS (A.U.)
          -----------------------------------------
                            SPIN DENS    ALPHA DENS     BETA DENS
    1  AR           8.0     0.0000000       0.00079       0.00079

          ---------------------
          ELECTROSTATIC MOMENTS
          ---------------------

 POINT   1           X           Y           Z (BOHR)    CHARGE
                 0.000000    0.000000    0.000000       -0.00 (A.U.)
         DX          DY          DZ         /D/  (DEBYE)
     0.000000    0.000000    0.000000    0.000000
 ...... END OF PROPERTY EVALUATION ......
 STEP CPU TIME =     0.03 TOTAL CPU TIME =        0.4 (    0.0 MIN)
 TOTAL WALL CLOCK TIME=        1.2 SECONDS, CPU UTILIZATION IS  34.43%
                580000  WORDS OF DYNAMIC MEMORY USED
 EXECUTION OF GAMESS TERMINATED NORMALLY Tue Oct  2 06:32:23 2018
 DDI: 263624 bytes (0.3 MB / 0 MWords) used by master data server.

 ----------------------------------------
 CPU timing information for all processes
 ========================================
 0: 0.214 + 0.244 = 0.458
 ----------------------------------------
 ddikick.x: exited gracefully.
----- accounting info -----
Files used on the master node c473-131.stampede2.tacc.utexas.edu were:
-rw------- 1 aannabe G-801537    1299 Oct  2 06:32 /tmp/Ar.F05
-rw------- 1 aannabe G-801537  360032 Oct  2 06:32 /tmp/Ar.F08
-rw------- 1 aannabe G-801537 2617600 Oct  2 06:32 /tmp/Ar.F10
Tue Oct  2 06:32:26 CDT 2018
1.185u 0.727s 0:06.83 27.8%	0+0k 6520+40io 33pf+0w
