
 Primary working directories    : /global/cscratch1/sd/aannabe
 Secondary working directories  : /global/cscratch1/sd/aannabe
 Wavefunction directory         : /global/homes/a/aannabe/wfu/
 Main file repository           : /global/cscratch1/sd/aannabe/

 SHA1      : 19cd028119e0e09f93f0674bd8af7968d9b3eff6
 NAME      : 2015.1.36
 ARCHNAME  : linux/x86_64
 FC        : /opt/cray/pe/craype/2.5.14/bin/ftn
 BLASLIB   : -L/opt/intel/compilers_and_libraries_2018.1.163/linux/mkl/lib/intel64 -Wl,-_start-group -lmkl_intel_ilp64 -lmkl_intel_thread -lmkl_core -Wl,-_end-group -liomp5
 id        : lbl

 Nodes     nprocs
 nid00458     1

 Using customized tuning parameters: mindgm=7; mindgv=16; mindgc=1; mindgr=1; noblas=0; minvec=7
 default implementation of scratch files=df  

 ***,Ni
 memory,512,m
 gthresh,twoint=1.e-12
 
 gprint,basis,orbitals
 gexpec,ekin,pot
 
 angstrom
 geometry={
 1                                                                               ! Number of atoms
 Ni 0.0 0.0 0.0
 }
 
 basis={
 Including file /global/homes/a/aannabe/docs/accurate/STU_natural/pps/Ni.pp
 Including file /global/homes/a/aannabe/docs/accurate/STU_natural/basis/Ni_5z.basis
 }
 
 {rhf
  start,atden
  print,orbitals=2
  wf,18,6,2
  occ,4,1,1,1,1,1,1,0
  open,1.4,1.7
  sym,1,1,1,3,2
  orbital,4202.2
 }
 pop
 {multi
  start,4202.2
  occ,4,1,1,1,1,1,1,0
  closed,2,1,1,0,1,0,0
  wf,18,1,2;state,1
  wf,18,4,2;state,3
  wf,18,6,2;state,3
  wf,18,7,2;state,3
  natorb,ci,print
  orbital,5202.2
 }
 {rhf,nitord=1,maxit=0
  start,5202.2
  wf,18,1,2
  occ,4,1,1,1,1,1,1,0
  open,3.1,4.1
  sym,1,1,1,3,2
 }
 
 scf(i)=energy
 
 _CC_NORM_MAX=2.0
 {uccsd(t)
 maxit,100
 core
 }
 posthf(i)=energy
 
 table,scf,posthf,ekin,pot
 save,5.csv,new
 
 

 Variables initialized (889), CPU time= 0.00 sec
 Commands  initialized (702), CPU time= 0.01 sec, 572 directives.
 Default parameters read. Elapsed time= 0.16 sec

 Checking input...
 Passed
1


                                         ***  PROGRAM SYSTEM MOLPRO  ***
                                       Copyright, TTI GmbH Stuttgart, 2015
                                    Version 2015.1 linked Dec 29 2018 15:55:43


 **********************************************************************************************************************************
 LABEL *   Ni                                                                            
  64 bit serial version                                                                  DATE: 16-Feb-19          TIME: 11:00:24  
 **********************************************************************************************************************************

 SHA1:             19cd028119e0e09f93f0674bd8af7968d9b3eff6
 **********************************************************************************************************************************

 THRESHOLDS:

 ZERO    =  1.00D-12  ONEINT  =  1.00D-12  TWOINT  =  1.00D-12  PREFAC  =  1.00D-14  LOCALI  =  1.00D-09  EORDER  =  1.00D-04
 ENERGY  =  0.00D+00  ETEST   =  0.00D+00  EDENS   =  0.00D+00  THRDEDEF=  1.00D-06  GRADIENT=  1.00D-02  STEP    =  1.00D-03
 ORBITAL =  1.00D-05  CIVEC   =  1.00D-05  COEFF   =  1.00D-04  PRINTCI =  5.00D-02  PUNCHCI =  9.90D+01  OPTGRAD =  3.00D-04
 OPTENERG=  1.00D-06  OPTSTEP =  3.00D-04  THRGRAD =  1.00D-10  COMPRESS=  1.00D-11  VARMIN  =  1.00D-07  VARMAX  =  1.00D-03
 THRDOUB =  0.00D+00  THRDIV  =  1.00D-05  THRRED  =  1.00D-07  THRPSP  =  1.00D+00  THRDC   =  1.00D-10  THRCS   =  1.00D-10
 THRNRM  =  1.00D-08  THREQ   =  0.00D+00  THRDE   =  1.00D+00  THRREF  =  1.00D-05  SPARFAC =  1.00D+00  THRDLP  =  1.00D-07
 THRDIA  =  1.00D-10  THRDLS  =  1.00D-07  THRGPS  =  0.00D+00  THRKEX  =  0.00D+00  THRDIS  =  2.00D-01  THRVAR  =  1.00D-10
 THRLOC  =  1.00D-06  THRGAP  =  1.00D-06  THRLOCT = -1.00D+00  THRGAPT = -1.00D+00  THRORB  =  1.00D-06  THRMLTP =  0.00D+00
 THRCPQCI=  1.00D-10  KEXTA   =  0.00D+00  THRCOARS=  0.00D+00  SYMTOL  =  1.00D-06  GRADTOL =  1.00D-06  THROVL  =  1.00D-08
 THRORTH =  1.00D-08  GRID    =  1.00D-06  GRIDMAX =  1.00D-03  DTMAX   =  0.00D+00  THROCCDE=  1.00D-01  THROCCDE=  1.00D-01



 ZUNIT=ANG
 

Geometry recognized as XYZ


 Variable memory set to  512000000 words,  buffer space   230000 words

 SETTING BASIS          =    USERDEF


 Recomputing integrals since basis changed


 Using spherical harmonics



 PROGRAM * SEWARD (Integral evaluation for generally contracted gaussian basis sets)     Author: Roland Lindh, 1990

 Geometry written to block  1 of record 700

 Orientation using atomic masses  
 Molecule type: Atom
 Symmetry elements: X,Y,Z
 Rotational constants:       0.0000000      0.0000000      0.0000000 GHz  (calculated with average atomic masses)

 Point group  D2h 



 ATOMIC COORDINATES

 NR  ATOM    CHARGE       X              Y              Z

   1  NI     18.00    0.000000000    0.000000000    0.000000000


          NI  CORE POTENTIAL

          f POTENTIAL

 POWERS             2
 EXPONENTIALS   1.000000    
 COEFFICIENTS   0.000000    

          s - f POTENTIAL

 POWERS             2              2
 EXPONENTIALS   26.74000       11.86000    
 COEFFICIENTS   317.6823       58.25539    

          p - f POTENTIAL

 POWERS             2              2
 EXPONENTIALS   28.80000       11.79000    
 COEFFICIENTS   252.4744       36.08150    

          d - f POTENTIAL

 POWERS             2              2
 EXPONENTIALS   33.70000       11.66000    
 COEFFICIENTS  -18.52295      -4.557668    


 BASIS DATA

   Nr Sym  Nuc  Type         Exponents   Contraction coefficients

    1.1 Ag    1  1s       10201.992670     0.000018   -0.000004
    2.1 Ag                 2550.498168     0.000078   -0.000019
                            728.713763     0.000243   -0.000058
                            242.904587     0.000821   -0.000200
                             97.161835    -0.000522    0.000154
                             51.187866    -0.005724    0.001116
                             26.996725     0.108264   -0.025210
                             15.523536    -0.151401    0.037685
                              8.916168    -0.329232    0.080252
                              4.795806    -0.024291    0.000867
                              2.619926     0.506913   -0.136055
                              1.330111     0.560034   -0.211236
                              0.668901     0.189622   -0.158046
                              0.230439     0.008846    0.141936
                              0.121518    -0.002605    0.442281
                              0.057951     0.000835    0.473675
                              0.027201    -0.000186    0.111323
    3.1 Ag    1  1s          97.161835     0.000121    0.000434    0.002461    0.000002    0.000000
    4.1 Ag                   51.187866     0.003322    0.004848   -0.023460   -0.011799    0.000000
    5.1 Ag                   26.996725    -0.045785   -0.087818    0.198590    0.228034    0.000000
    6.1 Ag                   15.523536     0.053415    0.121852   -0.402525   -0.518505    0.000000
    7.1 Ag                    8.916168     0.222270    0.454218   -0.405568   -1.143264    0.000000
                              4.795806    -0.073065   -0.245765    0.387893    3.241774    0.000000
                              2.619926    -0.293998   -0.997345    2.684679    0.667935    0.000000
                              1.330111    -0.668938   -0.834586   -2.955956   -6.658332    0.000000
                              0.668901     0.297504    2.285675   -0.667467    6.627251    0.000000
                              0.230439     1.233748    0.251538    4.094074   -3.199018    0.000000
                              0.121518     0.129317   -1.988796   -3.103355   -0.632888    0.000000
                              0.057951    -0.603407    0.347602   -0.768728    3.287436    0.000000
                              0.027201    -0.533062    0.824150    1.331217   -1.861778    1.000000
    8.1 Ag    1  1s           3.839643     1.000000
    9.1 Ag    1  1s           4.440328     1.000000
   10.1 Ag    1  3d0        355.800250     0.000005
                            177.900125     0.001336
                             57.372112     0.008382
                             29.881432     0.029484
                             13.971757     0.097636
                              6.841152     0.188792
                              3.379983     0.278000
                              1.651827     0.299448
                              0.799251     0.250265
                              0.388057     0.146577
                              0.191191     0.055882
                              0.093358     0.009558
   11.1 Ag    1  3d2+       355.800250     0.000005
                            177.900125     0.001336
                             57.372112     0.008382
                             29.881432     0.029484
                             13.971757     0.097636
                              6.841152     0.188792
                              3.379983     0.278000
                              1.651827     0.299448
                              0.799251     0.250265
                              0.388057     0.146577
                              0.191191     0.055882
                              0.093358     0.009558
   12.1 Ag    1  3d0        177.900125    -0.000053
                             57.372112    -0.008850
                             29.881432    -0.041916
                             13.971757    -0.104691
                              6.841152    -0.219464
                              3.379983    -0.283712
                              1.651827    -0.122127
                              0.799251     0.190123
                              0.388057     0.376598
                              0.191191     0.295122
                              0.093358     0.178252
   13.1 Ag    1  3d2+       177.900125    -0.000053
                             57.372112    -0.008850
                             29.881432    -0.041916
                             13.971757    -0.104691
                              6.841152    -0.219464
                              3.379983    -0.283712
                              1.651827    -0.122127
                              0.799251     0.190123
                              0.388057     0.376598
                              0.191191     0.295122
                              0.093358     0.178252
   14.1 Ag    1  3d0        177.900125     0.000079
                             57.372112     0.011442
                             29.881432     0.053972
                             13.971757     0.141068
                              6.841152     0.302294
                              3.379983     0.236558
                              1.651827    -0.291311
                              0.799251    -0.581758
                              0.388057    -0.024063
                              0.191191     0.389387
                              0.093358     0.430833
   15.1 Ag    1  3d2+       177.900125     0.000079
                             57.372112     0.011442
                             29.881432     0.053972
                             13.971757     0.141068
                              6.841152     0.302294
                              3.379983     0.236558
                              1.651827    -0.291311
                              0.799251    -0.581758
                              0.388057    -0.024063
                              0.191191     0.389387
                              0.093358     0.430833
   16.1 Ag    1  3d0        177.900125    -0.000124
                             57.372112    -0.016602
                             29.881432    -0.077533
                             13.971757    -0.221826
                              6.841152    -0.481658
                              3.379983     0.182447
                              1.651827     0.945626
                              0.799251    -0.334241
                              0.388057    -0.761164
                              0.191191     0.136816
                              0.093358     0.600785
   17.1 Ag    1  3d2+       177.900125    -0.000124
                             57.372112    -0.016602
                             29.881432    -0.077533
                             13.971757    -0.221826
                              6.841152    -0.481658
                              3.379983     0.182447
                              1.651827     0.945626
                              0.799251    -0.334241
                              0.388057    -0.761164
                              0.191191     0.136816
                              0.093358     0.600785
   18.1 Ag    1  3d0        177.900125     0.000143
                             57.372112    -0.024129
                             29.881432    -0.087065
                             13.971757    -0.359465
                              6.841152    -0.490303
                              3.379983     1.318207
                              1.651827    -0.172417
                              0.799251    -1.342487
                              0.388057     1.013614
                              0.191191     0.533432
                              0.093358    -0.866049
   19.1 Ag    1  3d2+       177.900125     0.000143
                             57.372112    -0.024129
                             29.881432    -0.087065
                             13.971757    -0.359465
                              6.841152    -0.490303
                              3.379983     1.318207
                              1.651827    -0.172417
                              0.799251    -1.342487
                              0.388057     1.013614
                              0.191191     0.533432
                              0.093358    -0.866049
   20.1 Ag    1  3d0        177.900125     0.000000
                             57.372112     0.000000
                             29.881432     0.000000
                             13.971757     0.000000
                              6.841152     0.000000
                              3.379983     0.000000
                              1.651827     0.000000
                              0.799251     0.000000
                              0.388057     0.000000
                              0.191191     0.000000
                              0.093358     1.000000
   21.1 Ag    1  3d2+       177.900125     0.000000
                             57.372112     0.000000
                             29.881432     0.000000
                             13.971757     0.000000
                              6.841152     0.000000
                              3.379983     0.000000
                              1.651827     0.000000
                              0.799251     0.000000
                              0.388057     0.000000
                              0.191191     0.000000
                              0.093358     1.000000
   22.1 Ag    1  3d0          6.308547     1.000000
   23.1 Ag    1  3d2+         6.308547     1.000000
   24.1 Ag    1  3d0          6.503304     1.000000
   25.1 Ag    1  3d2+         6.503304     1.000000
   26.1 Ag    1  5g0          0.944121     1.000000
   27.1 Ag    1  5g4+         0.944121     1.000000
   28.1 Ag    1  5g2+         0.944121     1.000000
   29.1 Ag    1  5g0          2.771204     1.000000
   30.1 Ag    1  5g4+         2.771204     1.000000
   31.1 Ag    1  5g2+         2.771204     1.000000
   32.1 Ag    1  5g0          8.134096     1.000000
   33.1 Ag    1  5g4+         8.134096     1.000000
   34.1 Ag    1  5g2+         8.134096     1.000000
   35.1 Ag    1  5g0          5.827115     1.000000
   36.1 Ag    1  5g4+         5.827115     1.000000
   37.1 Ag    1  5g2+         5.827115     1.000000
   38.1 Ag    1  7i6+         4.485842     1.000000
   39.1 Ag    1  7i4+         4.485842     1.000000
   40.1 Ag    1  7i2+         4.485842     1.000000
   41.1 Ag    1  7i0          4.485842     1.000000
   42.1 Ag    1  7i6+         9.183271     1.000000
   43.1 Ag    1  7i4+         9.183271     1.000000
   44.1 Ag    1  7i2+         9.183271     1.000000
   45.1 Ag    1  7i0          9.183271     1.000000
    1.2 B3u   1  2px        370.219075     0.000133    0.000051
    2.2 B3u                 148.087630     0.000184   -0.000060
                             77.452187    -0.000171    0.000387
                             40.915636     0.012864    0.002261
                             22.575667    -0.043275   -0.009122
                             13.218268    -0.073470   -0.026366
                              7.232093     0.037020    0.023521
                              4.054870     0.287407    0.071181
                              2.122089     0.417209    0.159270
                              1.092769     0.306664    0.074081
                              0.548240     0.098195    0.033197
                              0.238886     0.008483   -0.601421
                              0.084667     0.000400   -0.517750
                              0.038921     0.000036   -0.009842
    3.2 B3u   1  2px        148.087630    -0.000237   -0.000260    0.000080   -0.001985    0.000000
    4.2 B3u                  77.452187     0.001456    0.001071   -0.000101    0.010159    0.000000
    5.2 B3u                  40.915636    -0.009745    0.002322   -0.006492   -0.029367    0.000000
    6.2 B3u                  22.575667     0.037799   -0.032140    0.083129   -0.066497    0.000000
    7.2 B3u                  13.218268     0.052521   -0.134136    0.195393   -0.464883    0.000000
                              7.232093    -0.035006    0.229062   -0.765806    2.881074    0.000000
                              4.054870    -0.455577    0.752239   -1.206017   -2.201144    0.000000
                              2.122089    -0.368306    0.205535    2.424444   -2.240154    0.000000
                              1.092769     0.100392   -1.692910   -0.079387    5.380160    0.000000
                              0.548240     1.076652    0.436295   -2.325449   -4.638381    0.000000
                              0.238886    -0.045326    1.219514    2.129133    2.076353    0.000000
                              0.084667    -0.703186   -0.945516   -0.733585   -0.211195    0.000000
                              0.038921     0.004580   -0.062232   -0.180444   -0.408015    1.000000
    8.2 B3u   1  2px          4.337090     1.000000
    9.2 B3u   1  2px         10.973202     1.000000
   10.2 B3u   1  4f1+         0.443146     1.000000
   11.2 B3u   1  4f3+         0.443146     1.000000
   12.2 B3u   1  4f1+         1.263741     1.000000
   13.2 B3u   1  4f3+         1.263741     1.000000
   14.2 B3u   1  4f1+         3.603870     1.000000
   15.2 B3u   1  4f3+         3.603870     1.000000
   16.2 B3u   1  4f1+        10.277329     1.000000
   17.2 B3u   1  4f3+        10.277329     1.000000
   18.2 B3u   1  4f1+         5.165757     1.000000
   19.2 B3u   1  4f3+         5.165757     1.000000
   20.2 B3u   1  6h1+         1.828195     1.000000
   21.2 B3u   1  6h3+         1.828195     1.000000
   22.2 B3u   1  6h5+         1.828195     1.000000
   23.2 B3u   1  6h1+         5.825403     1.000000
   24.2 B3u   1  6h3+         5.825403     1.000000
   25.2 B3u   1  6h5+         5.825403     1.000000
   26.2 B3u   1  6h1+         8.338379     1.000000
   27.2 B3u   1  6h3+         8.338379     1.000000
   28.2 B3u   1  6h5+         8.338379     1.000000
    1.3 B2u   1  2py        370.219075     0.000133    0.000051
    2.3 B2u                 148.087630     0.000184   -0.000060
                             77.452187    -0.000171    0.000387
                             40.915636     0.012864    0.002261
                             22.575667    -0.043275   -0.009122
                             13.218268    -0.073470   -0.026366
                              7.232093     0.037020    0.023521
                              4.054870     0.287407    0.071181
                              2.122089     0.417209    0.159270
                              1.092769     0.306664    0.074081
                              0.548240     0.098195    0.033197
                              0.238886     0.008483   -0.601421
                              0.084667     0.000400   -0.517750
                              0.038921     0.000036   -0.009842
    3.3 B2u   1  2py        148.087630    -0.000237   -0.000260    0.000080   -0.001985    0.000000
    4.3 B2u                  77.452187     0.001456    0.001071   -0.000101    0.010159    0.000000
    5.3 B2u                  40.915636    -0.009745    0.002322   -0.006492   -0.029367    0.000000
    6.3 B2u                  22.575667     0.037799   -0.032140    0.083129   -0.066497    0.000000
    7.3 B2u                  13.218268     0.052521   -0.134136    0.195393   -0.464883    0.000000
                              7.232093    -0.035006    0.229062   -0.765806    2.881074    0.000000
                              4.054870    -0.455577    0.752239   -1.206017   -2.201144    0.000000
                              2.122089    -0.368306    0.205535    2.424444   -2.240154    0.000000
                              1.092769     0.100392   -1.692910   -0.079387    5.380160    0.000000
                              0.548240     1.076652    0.436295   -2.325449   -4.638381    0.000000
                              0.238886    -0.045326    1.219514    2.129133    2.076353    0.000000
                              0.084667    -0.703186   -0.945516   -0.733585   -0.211195    0.000000
                              0.038921     0.004580   -0.062232   -0.180444   -0.408015    1.000000
    8.3 B2u   1  2py          4.337090     1.000000
    9.3 B2u   1  2py         10.973202     1.000000
   10.3 B2u   1  4f1-         0.443146     1.000000
   11.3 B2u   1  4f3-         0.443146     1.000000
   12.3 B2u   1  4f1-         1.263741     1.000000
   13.3 B2u   1  4f3-         1.263741     1.000000
   14.3 B2u   1  4f1-         3.603870     1.000000
   15.3 B2u   1  4f3-         3.603870     1.000000
   16.3 B2u   1  4f1-        10.277329     1.000000
   17.3 B2u   1  4f3-        10.277329     1.000000
   18.3 B2u   1  4f1-         5.165757     1.000000
   19.3 B2u   1  4f3-         5.165757     1.000000
   20.3 B2u   1  6h1-         1.828195     1.000000
   21.3 B2u   1  6h3-         1.828195     1.000000
   22.3 B2u   1  6h5-         1.828195     1.000000
   23.3 B2u   1  6h1-         5.825403     1.000000
   24.3 B2u   1  6h3-         5.825403     1.000000
   25.3 B2u   1  6h5-         5.825403     1.000000
   26.3 B2u   1  6h1-         8.338379     1.000000
   27.3 B2u   1  6h3-         8.338379     1.000000
   28.3 B2u   1  6h5-         8.338379     1.000000
    1.4 B1g   1  3d2-       355.800250     0.000005
                            177.900125     0.001336
                             57.372112     0.008382
                             29.881432     0.029484
                             13.971757     0.097636
                              6.841152     0.188792
                              3.379983     0.278000
                              1.651827     0.299448
                              0.799251     0.250265
                              0.388057     0.146577
                              0.191191     0.055882
                              0.093358     0.009558
    2.4 B1g   1  3d2-       177.900125    -0.000053    0.000079   -0.000124    0.000143    0.000000
    3.4 B1g                  57.372112    -0.008850    0.011442   -0.016602   -0.024129    0.000000
    4.4 B1g                  29.881432    -0.041916    0.053972   -0.077533   -0.087065    0.000000
    5.4 B1g                  13.971757    -0.104691    0.141068   -0.221826   -0.359465    0.000000
    6.4 B1g                   6.841152    -0.219464    0.302294   -0.481658   -0.490303    0.000000
                              3.379983    -0.283712    0.236558    0.182447    1.318207    0.000000
                              1.651827    -0.122127   -0.291311    0.945626   -0.172417    0.000000
                              0.799251     0.190123   -0.581758   -0.334241   -1.342487    0.000000
                              0.388057     0.376598   -0.024063   -0.761164    1.013614    0.000000
                              0.191191     0.295122    0.389387    0.136816    0.533432    0.000000
                              0.093358     0.178252    0.430833    0.600785   -0.866049    1.000000
    7.4 B1g   1  3d2-         6.308547     1.000000
    8.4 B1g   1  3d2-         6.503304     1.000000
    9.4 B1g   1  5g2-         0.944121     1.000000
   10.4 B1g   1  5g4-         0.944121     1.000000
   11.4 B1g   1  5g2-         2.771204     1.000000
   12.4 B1g   1  5g4-         2.771204     1.000000
   13.4 B1g   1  5g2-         8.134096     1.000000
   14.4 B1g   1  5g4-         8.134096     1.000000
   15.4 B1g   1  5g2-         5.827115     1.000000
   16.4 B1g   1  5g4-         5.827115     1.000000
   17.4 B1g   1  7i2-         4.485842     1.000000
   18.4 B1g   1  7i6-         4.485842     1.000000
   19.4 B1g   1  7i4-         4.485842     1.000000
   20.4 B1g   1  7i2-         9.183271     1.000000
   21.4 B1g   1  7i6-         9.183271     1.000000
   22.4 B1g   1  7i4-         9.183271     1.000000
    1.5 B1u   1  2pz        370.219075     0.000133    0.000051
    2.5 B1u                 148.087630     0.000184   -0.000060
                             77.452187    -0.000171    0.000387
                             40.915636     0.012864    0.002261
                             22.575667    -0.043275   -0.009122
                             13.218268    -0.073470   -0.026366
                              7.232093     0.037020    0.023521
                              4.054870     0.287407    0.071181
                              2.122089     0.417209    0.159270
                              1.092769     0.306664    0.074081
                              0.548240     0.098195    0.033197
                              0.238886     0.008483   -0.601421
                              0.084667     0.000400   -0.517750
                              0.038921     0.000036   -0.009842
    3.5 B1u   1  2pz        148.087630    -0.000237   -0.000260    0.000080   -0.001985    0.000000
    4.5 B1u                  77.452187     0.001456    0.001071   -0.000101    0.010159    0.000000
    5.5 B1u                  40.915636    -0.009745    0.002322   -0.006492   -0.029367    0.000000
    6.5 B1u                  22.575667     0.037799   -0.032140    0.083129   -0.066497    0.000000
    7.5 B1u                  13.218268     0.052521   -0.134136    0.195393   -0.464883    0.000000
                              7.232093    -0.035006    0.229062   -0.765806    2.881074    0.000000
                              4.054870    -0.455577    0.752239   -1.206017   -2.201144    0.000000
                              2.122089    -0.368306    0.205535    2.424444   -2.240154    0.000000
                              1.092769     0.100392   -1.692910   -0.079387    5.380160    0.000000
                              0.548240     1.076652    0.436295   -2.325449   -4.638381    0.000000
                              0.238886    -0.045326    1.219514    2.129133    2.076353    0.000000
                              0.084667    -0.703186   -0.945516   -0.733585   -0.211195    0.000000
                              0.038921     0.004580   -0.062232   -0.180444   -0.408015    1.000000
    8.5 B1u   1  2pz          4.337090     1.000000
    9.5 B1u   1  2pz         10.973202     1.000000
   10.5 B1u   1  4f0          0.443146     1.000000
   11.5 B1u   1  4f2+         0.443146     1.000000
   12.5 B1u   1  4f0          1.263741     1.000000
   13.5 B1u   1  4f2+         1.263741     1.000000
   14.5 B1u   1  4f0          3.603870     1.000000
   15.5 B1u   1  4f2+         3.603870     1.000000
   16.5 B1u   1  4f0         10.277329     1.000000
   17.5 B1u   1  4f2+        10.277329     1.000000
   18.5 B1u   1  4f0          5.165757     1.000000
   19.5 B1u   1  4f2+         5.165757     1.000000
   20.5 B1u   1  6h2+         1.828195     1.000000
   21.5 B1u   1  6h4+         1.828195     1.000000
   22.5 B1u   1  6h0          1.828195     1.000000
   23.5 B1u   1  6h2+         5.825403     1.000000
   24.5 B1u   1  6h4+         5.825403     1.000000
   25.5 B1u   1  6h0          5.825403     1.000000
   26.5 B1u   1  6h2+         8.338379     1.000000
   27.5 B1u   1  6h4+         8.338379     1.000000
   28.5 B1u   1  6h0          8.338379     1.000000
    1.6 B2g   1  3d1+       355.800250     0.000005
                            177.900125     0.001336
                             57.372112     0.008382
                             29.881432     0.029484
                             13.971757     0.097636
                              6.841152     0.188792
                              3.379983     0.278000
                              1.651827     0.299448
                              0.799251     0.250265
                              0.388057     0.146577
                              0.191191     0.055882
                              0.093358     0.009558
    2.6 B2g   1  3d1+       177.900125    -0.000053    0.000079   -0.000124    0.000143    0.000000
    3.6 B2g                  57.372112    -0.008850    0.011442   -0.016602   -0.024129    0.000000
    4.6 B2g                  29.881432    -0.041916    0.053972   -0.077533   -0.087065    0.000000
    5.6 B2g                  13.971757    -0.104691    0.141068   -0.221826   -0.359465    0.000000
    6.6 B2g                   6.841152    -0.219464    0.302294   -0.481658   -0.490303    0.000000
                              3.379983    -0.283712    0.236558    0.182447    1.318207    0.000000
                              1.651827    -0.122127   -0.291311    0.945626   -0.172417    0.000000
                              0.799251     0.190123   -0.581758   -0.334241   -1.342487    0.000000
                              0.388057     0.376598   -0.024063   -0.761164    1.013614    0.000000
                              0.191191     0.295122    0.389387    0.136816    0.533432    0.000000
                              0.093358     0.178252    0.430833    0.600785   -0.866049    1.000000
    7.6 B2g   1  3d1+         6.308547     1.000000
    8.6 B2g   1  3d1+         6.503304     1.000000
    9.6 B2g   1  5g1+         0.944121     1.000000
   10.6 B2g   1  5g3+         0.944121     1.000000
   11.6 B2g   1  5g1+         2.771204     1.000000
   12.6 B2g   1  5g3+         2.771204     1.000000
   13.6 B2g   1  5g1+         8.134096     1.000000
   14.6 B2g   1  5g3+         8.134096     1.000000
   15.6 B2g   1  5g1+         5.827115     1.000000
   16.6 B2g   1  5g3+         5.827115     1.000000
   17.6 B2g   1  7i5+         4.485842     1.000000
   18.6 B2g   1  7i3+         4.485842     1.000000
   19.6 B2g   1  7i1+         4.485842     1.000000
   20.6 B2g   1  7i5+         9.183271     1.000000
   21.6 B2g   1  7i3+         9.183271     1.000000
   22.6 B2g   1  7i1+         9.183271     1.000000
    1.7 B3g   1  3d1-       355.800250     0.000005
                            177.900125     0.001336
                             57.372112     0.008382
                             29.881432     0.029484
                             13.971757     0.097636
                              6.841152     0.188792
                              3.379983     0.278000
                              1.651827     0.299448
                              0.799251     0.250265
                              0.388057     0.146577
                              0.191191     0.055882
                              0.093358     0.009558
    2.7 B3g   1  3d1-       177.900125    -0.000053    0.000079   -0.000124    0.000143    0.000000
    3.7 B3g                  57.372112    -0.008850    0.011442   -0.016602   -0.024129    0.000000
    4.7 B3g                  29.881432    -0.041916    0.053972   -0.077533   -0.087065    0.000000
    5.7 B3g                  13.971757    -0.104691    0.141068   -0.221826   -0.359465    0.000000
    6.7 B3g                   6.841152    -0.219464    0.302294   -0.481658   -0.490303    0.000000
                              3.379983    -0.283712    0.236558    0.182447    1.318207    0.000000
                              1.651827    -0.122127   -0.291311    0.945626   -0.172417    0.000000
                              0.799251     0.190123   -0.581758   -0.334241   -1.342487    0.000000
                              0.388057     0.376598   -0.024063   -0.761164    1.013614    0.000000
                              0.191191     0.295122    0.389387    0.136816    0.533432    0.000000
                              0.093358     0.178252    0.430833    0.600785   -0.866049    1.000000
    7.7 B3g   1  3d1-         6.308547     1.000000
    8.7 B3g   1  3d1-         6.503304     1.000000
    9.7 B3g   1  5g1-         0.944121     1.000000
   10.7 B3g   1  5g3-         0.944121     1.000000
   11.7 B3g   1  5g1-         2.771204     1.000000
   12.7 B3g   1  5g3-         2.771204     1.000000
   13.7 B3g   1  5g1-         8.134096     1.000000
   14.7 B3g   1  5g3-         8.134096     1.000000
   15.7 B3g   1  5g1-         5.827115     1.000000
   16.7 B3g   1  5g3-         5.827115     1.000000
   17.7 B3g   1  7i5-         4.485842     1.000000
   18.7 B3g   1  7i3-         4.485842     1.000000
   19.7 B3g   1  7i1-         4.485842     1.000000
   20.7 B3g   1  7i5-         9.183271     1.000000
   21.7 B3g   1  7i3-         9.183271     1.000000
   22.7 B3g   1  7i1-         9.183271     1.000000
    1.8 Au    1  4f2-         0.443146     1.000000
    2.8 Au    1  4f2-         1.263741     1.000000
    3.8 Au    1  4f2-         3.603870     1.000000
    4.8 Au    1  4f2-        10.277329     1.000000
    5.8 Au    1  4f2-         5.165757     1.000000
    6.8 Au    1  6h4-         1.828195     1.000000
    7.8 Au    1  6h2-         1.828195     1.000000
    8.8 Au    1  6h4-         5.825403     1.000000
    9.8 Au    1  6h2-         5.825403     1.000000
   10.8 Au    1  6h4-         8.338379     1.000000
   11.8 Au    1  6h2-         8.338379     1.000000

 NUCLEAR CHARGE:                   18
 NUMBER OF PRIMITIVE AOS:         498
 NUMBER OF SYMMETRY AOS:          374
 NUMBER OF CONTRACTIONS:          206   (  45Ag  +  28B3u +  28B2u +  22B1g +  28B1u +  22B2g +  22B3g +  11Au  )
 NUMBER OF CORE ORBITALS:           4   (   1Ag  +   1B3u +   1B2u +   0B1g +   1B1u +   0B2g +   0B3g +   0Au  )
 NUMBER OF VALENCE ORBITALS:        6   (   3Ag  +   0B3u +   0B2u +   1B1g +   0B1u +   1B2g +   1B3g +   0Au  )


 NUCLEAR REPULSION ENERGY    0.00000000

 EXTRA SYMMETRY OF AOS IN SYMMETRY 1:   1 1 1 1 1 1 1 1 1 2   3 2 3 2 3 2 3 2 3 2   3 2 3 2 3 4 5 6 4 5   6 4 5 6 4 5 6 7 8 9
                                       10 7 8 910
 EXTRA SYMMETRY OF AOS IN SYMMETRY 2:   1 1 1 1 1 1 1 1 1 2   3 2 3 2 3 2 3 2 3 4   5 6 4 5 6 4 5 6
 EXTRA SYMMETRY OF AOS IN SYMMETRY 3:   1 1 1 1 1 1 1 1 1 2   3 2 3 2 3 2 3 2 3 4   5 6 4 5 6 4 5 6
 EXTRA SYMMETRY OF AOS IN SYMMETRY 4:   1 1 1 1 1 1 1 1 2 3   2 3 2 3 2 3 4 5 6 4   5 6
 EXTRA SYMMETRY OF AOS IN SYMMETRY 5:   1 1 1 1 1 1 1 1 1 2   3 2 3 2 3 2 3 2 3 4   5 6 4 5 6 4 5 6
 EXTRA SYMMETRY OF AOS IN SYMMETRY 6:   1 1 1 1 1 1 1 1 2 3   2 3 2 3 2 3 4 5 6 4   5 6
 EXTRA SYMMETRY OF AOS IN SYMMETRY 7:   1 1 1 1 1 1 1 1 2 3   2 3 2 3 2 3 4 5 6 4   5 6
 EXTRA SYMMETRY OF AOS IN SYMMETRY 8:   1 1 1 1 1 2 3 2 3 2   3

 Eigenvalues of metric

         1 0.289E-04 0.289E-04 0.292E-04 0.739E-03 0.572E-02 0.572E-02 0.274E-01 0.274E-01
         2 0.435E-03 0.139E-01 0.139E-01 0.610E-01 0.805E-01 0.805E-01 0.805E-01 0.120E+00
         3 0.435E-03 0.139E-01 0.139E-01 0.610E-01 0.805E-01 0.805E-01 0.805E-01 0.120E+00
         4 0.289E-04 0.572E-02 0.274E-01 0.286E-01 0.286E-01 0.372E+00 0.372E+00 0.376E+00
         5 0.435E-03 0.139E-01 0.139E-01 0.610E-01 0.805E-01 0.805E-01 0.805E-01 0.120E+00
         6 0.289E-04 0.572E-02 0.274E-01 0.286E-01 0.286E-01 0.372E+00 0.372E+00 0.376E+00
         7 0.289E-04 0.572E-02 0.274E-01 0.286E-01 0.286E-01 0.372E+00 0.372E+00 0.376E+00
         8 0.139E-01 0.805E-01 0.805E-01 0.244E+00 0.560E+00 0.880E+00 0.880E+00 0.140E+01


 Contracted 2-electron integrals neglected if value below      1.0D-12
 AO integral compression algorithm  1   Integral accuracy      1.0D-12

     181.666 MB (compressed) written to integral file ( 51.1%)


 NUMBER OF SORTED TWO-ELECTRON INTEGRALS:   29098917.     BUFFER LENGTH:  32768
 NUMBER OF SEGMENTS:   2  SEGMENT LENGTH:   15999969      RECORD LENGTH: 524288

 Memory used in sort:      16.56 MW

 SORT1 READ    44478058. AND WROTE    18923596. INTEGRALS IN     55 RECORDS. CPU TIME:     1.51 SEC, REAL TIME:     2.03 SEC
 SORT2 READ    18923596. AND WROTE    29098917. INTEGRALS IN    693 RECORDS. CPU TIME:     0.78 SEC, REAL TIME:     1.53 SEC

 FILE SIZES:   FILE 1:   202.6 MBYTE,  FILE 4:   230.7 MBYTE,   TOTAL:    433.3 MBYTE

 OPERATOR DM      FOR CENTER  0  COORDINATES:    0.000000    0.000000    0.000000
 OPERATOR EKIN    FOR CENTER  0  COORDINATES:    0.000000    0.000000    0.000000
 OPERATOR POT     FOR CENTER  0  COORDINATES:    0.000000    0.000000    0.000000


 **********************************************************************************************************************************
 DATASETS  * FILE   NREC   LENGTH (MB)   RECORD NAMES
              1      20      137.40       500      610      700      900      950      970     1000      129      960     1100   
                                          VAR    BASINP    GEOM    SYMINP    ZMAT    AOBASIS   BASIS     P2S    ABASIS      S 
                                         1400     1410     1420     1200     1210     1080     1600     1650     1300     1700   
                                         EKIN       V       ECP      H0       H01     AOSYM     SMH    MOLCAS    ERIS     OPER   

 PROGRAMS   *        TOTAL       INT
 CPU TIMES  *        58.16     58.04
 REAL TIME  *        63.09 SEC
 DISK USED  *       433.68 MB      
 **********************************************************************************************************************************


 PROGRAM * RHF-SCF (OPEN SHELL)       Authors: W. Meyer, H.-J. Werner


 NUMBER OF ELECTRONS:      10+    8-    SPACE SYMMETRY=6    SPIN SYMMETRY: Triplet 
 CONVERGENCE THRESHOLDS:    1.00E-05 (Density)    1.00E-07 (Energy)
 MAX. NUMBER OF ITERATIONS:       60
 INTERPOLATION TYPE:            DIIS
 INTERPOLATION STEPS:              2 (START)      1 (STEP)
 LEVEL SHIFTS:                 -0.60 (CLOSED) -0.30 (OPEN) 


 Singly occupied orbitals:      1.4       1.7
 
 Extra symmetries of mos in symmetry 1:   1   1   3   2

   Atom=NI basis=ECP10MDF_GUESS    lmin=0  lmax=2

 Orbital guess generated from atomic densities. Full valence occupancy:    4   1   1   1   1   1   1   0


 Molecular orbital dump at record        4202.2

 ITERATION    DDIFF          GRAD             ENERGY        2-EL.EN.            DIPOLE MOMENTS         DIIS   ORB.
    1      0.000D+00      0.000D+00      -168.77419258    235.105896    0.00000    0.00000    0.00000    0    start
    2      0.000D+00      0.949D-01      -169.53050306    278.669390    0.00000    0.00000    0.00000    1    diag,B
    3      0.197D-01      0.742D-01      -169.90881221    266.765617    0.00000    0.00000    0.00000    2    diag,B
    4      0.628D-02      0.103D-01      -169.92417832    266.042228    0.00000    0.00000    0.00000    3    diag,B
    5      0.248D-02      0.196D-02      -169.92769190    266.559376    0.00000    0.00000    0.00000    4    diag,B
    6      0.326D-02      0.786D-03      -169.92874225    266.884931    0.00000    0.00000    0.00000    5    diag,B
    7      0.503D-02      0.362D-03      -169.92904139    267.014073    0.00000    0.00000    0.00000    6    fixocc
    8      0.615D-02      0.115D-03      -169.92906702    267.058554    0.00000    0.00000    0.00000    7    diag,B
    9      0.277D-02      0.265D-04      -169.92906749    267.060334    0.00000    0.00000    0.00000    8    diag,B
   10      0.251D-03      0.458D-05      -169.92906751    267.059954    0.00000    0.00000    0.00000    9    orth
   11      0.173D-04      0.127D-05      -169.92906751    267.059887    0.00000    0.00000    0.00000    9    diag,B
   12      0.122D-04      0.340D-06      -169.92906751    267.059933    0.00000    0.00000    0.00000    9    diag,B
   13      0.901D-06      0.145D-06      -169.92906751    267.059939    0.00000    0.00000    0.00000    0    orth

 Final alpha occupancy:   4   1   1   1   1   1   1   0
 Final beta  occupancy:   4   1   1   0   1   1   0   0

 !RHF STATE 1.6 Energy               -169.929067510684
 Nuclear energy                         0.00000000
 One-electron energy                 -303.45903678
 Two-electron energy                  133.52996927
 Virial quotient                       -1.55754240
 !RHF STATE 1.6 Dipole moment           0.00000000     0.00000000     0.00000000
 Dipole moment /Debye                   0.00000000     0.00000000     0.00000000
 

 !RHF expec          <1.6|EKIN|1.6>   109.100765272046
 
 !RHF expec           <1.6|POT|1.6>   -23.758687256910

 ELECTRON ORBITALS
 =================


   Orb  Occ    Energy  Couls-En    Coefficients

                                   1 1s      1 1s      1 1s      1 1s      1 1s      1 1s      1 1s      1 1s      1 1s      1 3d0  
                                   1 3d2+    1 3d0     1 3d2+    1 3d0     1 3d2+    1 3d0     1 3d2+    1 3d0     1 3d2+    1 3d0  
                                   1 3d2+    1 3d0     1 3d2+    1 3d0     1 3d2+    1 5g0     1 5g4+    1 5g2+    1 5g0     1 5g4+ 
                                   1 5g2+    1 5g0     1 5g4+    1 5g2+    1 5g0     1 5g4+    1 5g2+    1 7i6+    1 7i4+    1 7i2+ 
                                   1 7i0     1 7i6+    1 7i4+    1 7i2+    1 7i0  

   1.1   2    -5.0620  -26.5677  0.999753 -0.000234  0.000193 -0.000024 -0.000074  0.000024  0.000321  0.001446 -0.001310 -0.002868
                                -0.004968  0.001189  0.002060 -0.000084 -0.000146 -0.000278 -0.000481 -0.000197 -0.000342 -0.000155
                                -0.000269 -0.000614 -0.001064  0.000512  0.000886  0.000258  0.000509  0.000384  0.000262  0.000518
                                 0.000391  0.000163  0.000321  0.000243 -0.000103 -0.000202 -0.000153 -0.000001 -0.000000 -0.000000
                                -0.000000  0.000001  0.000001  0.000000  0.000000

   2.1   2    -0.2806   -7.0797  0.000120  1.000149  0.000039 -0.000019  0.000033 -0.000015 -0.000279 -0.000623  0.000567 -0.001076
                                -0.001864 -0.005249 -0.009091 -0.001619 -0.002804  0.000040  0.000069  0.000032  0.000055 -0.000628
                                -0.001088 -0.000733 -0.001269  0.000836  0.001448 -0.000066 -0.000131 -0.000099  0.000054  0.000107
                                 0.000081 -0.000013 -0.000025 -0.000019  0.000020  0.000040  0.000030 -0.000001 -0.000000 -0.000000
                                -0.000000 -0.000001 -0.000000 -0.000000 -0.000000

   3.1   2    -0.7103  -16.8401  0.006076  0.001956  0.000805  0.000465  0.000029 -0.000062 -0.000428  0.000664 -0.000591  0.499835
                                 0.865740 -0.000445 -0.000771  0.000513  0.000889  0.000590  0.001023 -0.000611 -0.001058 -0.001676
                                -0.002903  0.011560  0.020023 -0.011061 -0.019158 -0.000852 -0.001681 -0.001270 -0.000681 -0.001342
                                -0.001014 -0.000225 -0.000443 -0.000335 -0.000017 -0.000033 -0.000025 -0.000265 -0.000196 -0.000179
                                -0.000124 -0.000058 -0.000043 -0.000039 -0.000027

   4.1   2    -0.6499  -16.6700 -0.000000 -0.000000  0.000000 -0.000000 -0.000000  0.000000  0.000000  0.000000 -0.000000  0.867270
                                -0.500719  0.014171 -0.008182  0.005670 -0.003273  0.001043 -0.000602 -0.001302  0.000752 -0.005371
                                 0.003101  0.024626 -0.014218 -0.024120  0.013926 -0.000384  0.000454 -0.000343 -0.000418  0.000495
                                -0.000374 -0.000106  0.000125 -0.000095 -0.000035  0.000041 -0.000031  0.000155 -0.000038 -0.000118
                                -0.000101  0.000033 -0.000008 -0.000025 -0.000021

   5.1   0     0.0687   -2.7195 -0.888336 -4.620178  1.835655 -0.892824 -0.331476  0.096864  5.564249  0.601926 -0.672230  0.000427
                                 0.000739  0.002986  0.005172  0.000866  0.001501  0.000032  0.000056 -0.000079 -0.000137 -0.000126
                                -0.000219  0.001401  0.002427 -0.001413 -0.002448  0.000212  0.000418  0.000316 -0.000025 -0.000049
                                -0.000037 -0.000013 -0.000025 -0.000019 -0.000016 -0.000031 -0.000024  0.000000  0.000000  0.000000
                                 0.000000  0.000001  0.000001  0.000001  0.000000

   6.1   0     0.2542   -3.6876  0.015771  0.087937 -0.045029  0.021611  0.008927 -0.002557 -0.095769 -0.020434  0.020651 -0.194533
                                -0.336941 -0.434637 -0.752813 -0.364485 -0.631307 -0.180071 -0.311893  0.087205  0.151044  1.089984
                                 1.887908 -0.837085 -1.449875  0.789524  1.367496 -0.000059 -0.000117 -0.000089  0.000095  0.000186
                                 0.000141  0.000037  0.000073  0.000055 -0.000029 -0.000058 -0.000044  0.000056  0.000042  0.000038
                                 0.000026  0.000021  0.000015  0.000014  0.000010

                                   1 2px     1 2px     1 2px     1 2px     1 2px     1 2px     1 2px     1 2px     1 2px     1 4f1+ 
                                   1 4f3+    1 4f1+    1 4f3+    1 4f1+    1 4f3+    1 4f1+    1 4f3+    1 4f1+    1 4f3+    1 6h1+ 
                                   1 6h3+    1 6h5+    1 6h1+    1 6h3+    1 6h5+    1 6h1+    1 6h3+    1 6h5+ 

   1.2   2    -3.3536  -23.0155  1.000099 -0.000717  0.000506  0.000117 -0.000144  0.000029 -0.000014 -0.000163  0.000064  0.000281
                                 0.001087  0.000418  0.001619  0.000169  0.000653  0.000124  0.000479 -0.000030 -0.000117 -0.000009
                                -0.000030 -0.000068 -0.000028 -0.000092 -0.000206  0.000004  0.000012  0.000028

   2.2   0     0.0444   -3.8566 -0.145602 -0.034207  0.122869  0.055197  0.049670  0.021097  1.070626  0.107772 -0.028686 -0.000659
                                -0.002552  0.000041  0.000159  0.000051  0.000197  0.000011  0.000043  0.000035  0.000136 -0.000014
                                -0.000044 -0.000099  0.000011  0.000034  0.000077 -0.000001 -0.000004 -0.000009

   3.2   0     0.1970   -4.2350 -0.490194  1.667698  0.824435  0.368754  0.280406  0.112842  1.769700  0.565270 -0.145555  0.001098
                                 0.004254 -0.000026 -0.000102 -0.000105 -0.000406 -0.000022 -0.000086 -0.000037 -0.000142  0.000024
                                 0.000077  0.000172 -0.000017 -0.000055 -0.000124  0.000002  0.000007  0.000015

                                   1 2py     1 2py     1 2py     1 2py     1 2py     1 2py     1 2py     1 2py     1 2py     1 4f1- 
                                   1 4f3-    1 4f1-    1 4f3-    1 4f1-    1 4f3-    1 4f1-    1 4f3-    1 4f1-    1 4f3-    1 6h1- 
                                   1 6h3-    1 6h5-    1 6h1-    1 6h3-    1 6h5-    1 6h1-    1 6h3-    1 6h5- 

   1.3   2    -3.3626  -23.0346  0.999464  0.001304 -0.000785 -0.000359  0.000338 -0.000037  0.000042  0.000697 -0.000213 -0.000861
                                -0.001112 -0.003487 -0.004502 -0.003379 -0.004362 -0.000879 -0.001135  0.000179  0.000231 -0.000027
                                -0.000029 -0.000039 -0.000136 -0.000147 -0.000197  0.000020  0.000021  0.000028

   2.3   0     0.0406   -3.9647 -0.135303 -0.080549  0.109593  0.048945  0.044677  0.019098  1.027225  0.097668 -0.026053 -0.001143
                                -0.001476  0.000112  0.000145 -0.000061 -0.000079 -0.000003 -0.000004  0.000078  0.000101 -0.000077
                                -0.000083 -0.000111  0.000057  0.000062  0.000083 -0.000007 -0.000008 -0.000010

   3.3   0     0.1906   -4.2073 -0.484558  1.662093  0.805479  0.360828  0.274804  0.110591  1.782491  0.554012 -0.142737  0.001701
                                 0.002196 -0.000122 -0.000157  0.000057  0.000073 -0.000001 -0.000002 -0.000091 -0.000117  0.000125
                                 0.000135  0.000182 -0.000087 -0.000094 -0.000127  0.000010  0.000011  0.000015

                                   1 3d2-    1 3d2-    1 3d2-    1 3d2-    1 3d2-    1 3d2-    1 3d2-    1 3d2-    1 5g2-    1 5g4- 
                                   1 5g2-    1 5g4-    1 5g2-    1 5g4-    1 5g2-    1 5g4-    1 7i2-    1 7i6-    1 7i4-    1 7i2- 
                                   1 7i6-    1 7i4- 

   1.4   +    -0.7770  -17.0360  0.997224 -0.021383 -0.004311  0.002119 -0.000903 -0.000100  0.018296 -0.016661 -0.000698 -0.001847
                                -0.000640 -0.001692 -0.000199 -0.000526 -0.000026 -0.000070 -0.000137 -0.000612 -0.000301 -0.000032
                                -0.000140 -0.000069

   2.4   0     0.2535   -3.6762 -0.376748 -0.860667 -0.723677 -0.358185  0.173479  2.170858 -1.664814  1.570094 -0.000073 -0.000193
                                 0.000115  0.000304  0.000044  0.000115 -0.000030 -0.000079  0.000013  0.000060  0.000029  0.000005
                                 0.000023  0.000011

   3.4   0     0.7979   -4.9100  0.812155  3.423771  2.708691  1.244262 -0.561819 -4.269880  5.183336 -4.894596 -0.000403 -0.001067
                                 0.000294  0.000778  0.000109  0.000289 -0.000072 -0.000190  0.000027  0.000121  0.000060  0.000016
                                 0.000070  0.000034

                                   1 2pz     1 2pz     1 2pz     1 2pz     1 2pz     1 2pz     1 2pz     1 2pz     1 2pz     1 4f0  
                                   1 4f2+    1 4f0     1 4f2+    1 4f0     1 4f2+    1 4f0     1 4f2+    1 4f0     1 4f2+    1 6h2+ 
                                   1 6h4+    1 6h0     1 6h2+    1 6h4+    1 6h0     1 6h2+    1 6h4+    1 6h0  

   1.5   2    -3.3536  -23.0155  1.000099 -0.000717  0.000506  0.000117 -0.000144  0.000029 -0.000014 -0.000163  0.000064  0.000687
                                 0.000888  0.001024  0.001322  0.000413  0.000533  0.000303  0.000391 -0.000074 -0.000096 -0.000050
                                -0.000043 -0.000036 -0.000150 -0.000130 -0.000110  0.000020  0.000018  0.000015

   2.5   0     0.0444   -3.8566 -0.145602 -0.034207  0.122869  0.055197  0.049670  0.021097  1.070626  0.107772 -0.028686 -0.001614
                                -0.002084  0.000101  0.000130  0.000125  0.000161  0.000027  0.000035  0.000086  0.000111 -0.000073
                                -0.000063 -0.000053  0.000056  0.000048  0.000041 -0.000007 -0.000006 -0.000005

   3.5   0     0.1970   -4.2350 -0.490194  1.667698  0.824435  0.368754  0.280406  0.112842  1.769700  0.565270 -0.145555  0.002691
                                 0.003474 -0.000064 -0.000083 -0.000257 -0.000332 -0.000054 -0.000070 -0.000090 -0.000116  0.000126
                                 0.000109  0.000092 -0.000090 -0.000078 -0.000066  0.000011  0.000009  0.000008

                                   1 3d1+    1 3d1+    1 3d1+    1 3d1+    1 3d1+    1 3d1+    1 3d1+    1 3d1+    1 5g1+    1 5g3+ 
                                   1 5g1+    1 5g3+    1 5g1+    1 5g3+    1 5g1+    1 5g3+    1 7i5+    1 7i3+    1 7i1+    1 7i5+ 
                                   1 7i3+    1 7i1+ 

   1.6   2    -0.6499  -16.6700  1.001437  0.016364  0.006547  0.001204 -0.001503 -0.006201  0.028435 -0.027852 -0.000243 -0.000642
                                -0.000264 -0.000699 -0.000067 -0.000177 -0.000022 -0.000058 -0.000178 -0.000125 -0.000044 -0.000038
                                -0.000026 -0.000009

   2.6   0     0.2568   -3.6898 -0.402616 -0.887018 -0.741386 -0.365277  0.176731  2.200312 -1.696717  1.600480 -0.000058 -0.000154
                                 0.000173  0.000459  0.000062  0.000163 -0.000028 -0.000075  0.000040  0.000028  0.000010  0.000014
                                 0.000010  0.000003

   3.6   0     0.8119   -4.9789  0.790368  3.445668  2.739697  1.263431 -0.570779 -4.302457  5.261235 -4.967241 -0.000461 -0.001221
                                 0.000421  0.001115  0.000146  0.000385 -0.000060 -0.000160  0.000077  0.000054  0.000019  0.000041
                                 0.000028  0.000010

                                   1 3d1-    1 3d1-    1 3d1-    1 3d1-    1 3d1-    1 3d1-    1 3d1-    1 3d1-    1 5g1-    1 5g3- 
                                   1 5g1-    1 5g3-    1 5g1-    1 5g3-    1 5g1-    1 5g3-    1 7i5-    1 7i3-    1 7i1-    1 7i5- 
                                   1 7i3-    1 7i1- 

   1.7   +    -0.7770  -17.0360  0.997224 -0.021383 -0.004311  0.002119 -0.000903 -0.000100  0.018296 -0.016661 -0.001481 -0.001306
                                -0.001357 -0.001197 -0.000422 -0.000372 -0.000056 -0.000049 -0.000353 -0.000412 -0.000435 -0.000081
                                -0.000095 -0.000100

   2.7   0     0.2535   -3.6762 -0.376748 -0.860667 -0.723677 -0.358185  0.173479  2.170858 -1.664814  1.570094 -0.000155 -0.000136
                                 0.000244  0.000215  0.000092  0.000082 -0.000063 -0.000056  0.000034  0.000040  0.000042  0.000013
                                 0.000015  0.000016

   3.7   0     0.7979   -4.9100  0.812155  3.423771  2.708691  1.244262 -0.561819 -4.269880  5.183336 -4.894596 -0.000856 -0.000755
                                 0.000624  0.000550  0.000232  0.000204 -0.000153 -0.000135  0.000070  0.000082  0.000086  0.000040
                                 0.000047  0.000049

                                   1 4f2-    1 4f2-    1 4f2-    1 4f2-    1 4f2-    1 6h4-    1 6h2-    1 6h4-    1 6h2-    1 6h4- 
                                   1 6h2- 

   1.8   0     1.5230   -5.0256  1.057521 -0.130401  0.145162  0.019327 -0.095565 -0.001122 -0.000648  0.000171  0.000099 -0.000130
                                -0.000075

   2.8   0     4.4066   -3.6187 -0.633614  1.292021 -0.343241 -0.034745  0.322822 -0.004118 -0.002378 -0.000116 -0.000067 -0.000124
                                -0.000071

 HOMO      4.1    -0.649929 =     -17.6855eV
 LUMO      2.3     0.040592 =       1.1046eV
 LUMO-HOMO         0.690521 =      18.7900eV


 **********************************************************************************************************************************
 DATASETS  * FILE   NREC   LENGTH (MB)   RECORD NAMES
              1      20      137.40       500      610      700      900      950      970     1000      129      960     1100   
                                          VAR    BASINP    GEOM    SYMINP    ZMAT    AOBASIS   BASIS     P2S    ABASIS      S 
                                         1400     1410     1420     1200     1210     1080     1600     1650     1300     1700   
                                         EKIN       V       ECP      H0       H01     AOSYM     SMH    MOLCAS    ERIS     OPER   

              2       4        2.97       700     1000      520     4202   
                                         GEOM     BASIS   MCVARS     RHF  

 PROGRAMS   *        TOTAL       RHF       INT
 CPU TIMES  *        59.42      1.26     58.04
 REAL TIME  *        64.77 SEC
 DISK USED  *       433.68 MB      
 **********************************************************************************************************************************


 PROGRAM * POP (Mulliken population analysis)

 
 Density matrix read from record         4202.2  Type=RHF/CHARGE (state 1.6)
 
 Population analysis by basis function type

 Unique atom        s        p        d        f        g    Total    Charge
   1  NI      3.99970  5.99973  8.00024  0.00027  0.00006 18.00000  - 0.00000


 **********************************************************************************************************************************
 DATASETS  * FILE   NREC   LENGTH (MB)   RECORD NAMES
              1      20      137.40       500      610      700      900      950      970     1000      129      960     1100   
                                          VAR    BASINP    GEOM    SYMINP    ZMAT    AOBASIS   BASIS     P2S    ABASIS      S 
                                         1400     1410     1420     1200     1210     1080     1600     1650     1300     1700   
                                         EKIN       V       ECP      H0       H01     AOSYM     SMH    MOLCAS    ERIS     OPER   

              2       4        2.97       700     1000      520     4202   
                                         GEOM     BASIS   MCVARS     RHF  

 PROGRAMS   *        TOTAL       POP       RHF       INT
 CPU TIMES  *        59.43      0.01      1.26     58.04
 REAL TIME  *        64.78 SEC
 DISK USED  *       433.68 MB      
 **********************************************************************************************************************************


 PROGRAM * MULTI (Direct Multiconfiguration SCF)       Authors: P.J. Knowles, H.-J. Werner (1984)     S.T. Elbert (1988)


 Number of closed-shell orbitals:   5 (   2   1   1   0   1   0   0   0 )
 Number of active  orbitals:        5 (   2   0   0   1   0   1   1   0 )
 Number of external orbitals:     196 (  41  27  27  21  27  21  21  11 )

 State symmetry 1

 Number of electrons:     8    Spin symmetry=Triplet   Space symmetry=1
 Number of states:        1
 Number of CSFs:          1   (1 determinants, 10 intermediate states)

 State symmetry 2

 Number of electrons:     8    Spin symmetry=Triplet   Space symmetry=4
 Number of states:        3
 Number of CSFs:          3   (3 determinants, 10 intermediate states)

 State symmetry 3

 Number of electrons:     8    Spin symmetry=Triplet   Space symmetry=6
 Number of states:        3
 Number of CSFs:          3   (3 determinants, 10 intermediate states)

 State symmetry 4

 Number of electrons:     8    Spin symmetry=Triplet   Space symmetry=7
 Number of states:        3
 Number of CSFs:          3   (3 determinants, 10 intermediate states)

 Molecular orbitals read from record     4202.2  Type=RHF/CANONICAL (state 1.6)
 *** IN SYMMETRY 1 ORBITAL  1 SYMMETRY CONTAMINATION OF 0.192D-01 HAS BEEN REMOVED
 *** IN SYMMETRY 1 ORBITAL  2 SYMMETRY CONTAMINATION OF 0.277D-01 HAS BEEN REMOVED
 *** IN SYMMETRY 1 ORBITAL  3 SYMMETRY CONTAMINATION OF 0.375D+00 HAS BEEN REMOVED
 *** IN SYMMETRY 1 ORBITAL  4 SYMMETRY CONTAMINATION OF 0.367D+00 HAS BEEN REMOVED

 EXTRA SYMMETRY OF MOS IN SYMMETRY 1:   1 1 3 2 1 3 2 1 3 2   1 3 2 1 5 6 4 3 2 1   5 6 4 3 2 5 6 4 7 8   910 3 2 1 5 6 4 3 2
                                        7 8 910 1
 *** IN SYMMETRY 2 ORBITAL  1 SYMMETRY CONTAMINATION OF 0.542D-02 HAS BEEN REMOVED
 EXTRA SYMMETRY OF MOS IN SYMMETRY 2:   1 1 1 1 3 2 1 3 2 1   5 6 4 3 2 1 3 2 5 6   4 1 3 2 5 6 4 1
 *** IN SYMMETRY 3 ORBITAL  1 SYMMETRY CONTAMINATION OF 0.203D-01 HAS BEEN REMOVED
 EXTRA SYMMETRY OF MOS IN SYMMETRY 3:   1 1 1 1 2 3 1 2 3 1   6 5 4 2 3 1 2 3 6 5   4 1 2 3 6 5 4 1
 *** IN SYMMETRY 4 ORBITAL  1 SYMMETRY CONTAMINATION OF 0.655D-02 HAS BEEN REMOVED
 EXTRA SYMMETRY OF MOS IN SYMMETRY 4:   1 1 1 1 3 2 1 3 2 1   3 2 6 5 4 1 3 2 1 6   5 4
 *** IN SYMMETRY 5 ORBITAL  1 SYMMETRY CONTAMINATION OF 0.625D-02 HAS BEEN REMOVED
 EXTRA SYMMETRY OF MOS IN SYMMETRY 5:   1 1 1 1 3 2 1 3 2 1   5 4 6 3 2 1 3 2 5 4   6 1 3 2 5 4 6 1
 *** IN SYMMETRY 6 ORBITAL  1 SYMMETRY CONTAMINATION OF 0.237D-02 HAS BEEN REMOVED
 EXTRA SYMMETRY OF MOS IN SYMMETRY 6:   1 1 1 1 3 2 1 3 2 1   3 2 4 5 6 1 3 2 1 4   5 6
 *** IN SYMMETRY 7 ORBITAL  1 SYMMETRY CONTAMINATION OF 0.722D-02 HAS BEEN REMOVED
 EXTRA SYMMETRY OF MOS IN SYMMETRY 7:   1 1 1 1 2 3 1 2 3 1   2 3 4 6 5 1 2 3 1 4   6 5
 EXTRA SYMMETRY OF MOS IN SYMMETRY 8:   1 1 2 3 1 1 2 3 1 2   3

 Wavefunction dump at record             5202.2

 Convergence thresholds  0.10E-01 (gradient)  0.10E-05 (energy)  0.10E-02 (step length)

 Weight factors for state symmetry  1:    0.10000
 Weight factors for state symmetry  2:    0.10000   0.10000   0.10000
 Weight factors for state symmetry  3:    0.10000   0.10000   0.10000
 Weight factors for state symmetry  4:    0.10000   0.10000   0.10000

 Number of orbital rotations:      312   (     4 Core/Active    163 Core/Virtual   0 Active/Active    145 Active/Virtual)
 Total number of variables:        340


 ITER. MIC  NCI  NEG     ENERGY(VAR)     ENERGY(PROJ)   ENERGY CHANGE     GRAD(0)  GRAD(ORB)   GRAD(CI)     STEP       TIME

   1   31   16    0    -169.91265099    -169.91517490   -0.00252392    0.09345435 0.00000000 0.00000000  0.37D-01      0.37
   2   25   20    0    -169.91518247    -169.91518269   -0.00000022    0.00085427 0.00000000 0.00000000  0.50D-03      0.75
   3   69   48    0    -169.91518269    -169.91518269    0.00000000    0.00000011 0.00000000 0.00000000  0.77D-07      1.11

 ** WVFN ****  CONVERGENCE REACHED, FINAL GRADIENT:  0.18D-11



 Results for state 1.1
 =====================

 !MCSCF STATE 1.1 Energy             -169.941993602553
 Nuclear energy                         0.00000000
 Kinetic energy                       109.07612058
 One electron energy                 -303.45521682
 Two electron energy                  133.51322321
 Virial ratio                           2.55801281

 !MCSCF STATE 1.1 Dipole moment         0.00000000     0.00000000     0.00000000
 Dipole moment /Debye                   0.00000000     0.00000000     0.00000000



 Results for state 1.4
 =====================

 !MCSCF STATE 1.4 Energy             -169.941993602553
 Nuclear energy                         0.00000000
 Kinetic energy                       109.07612058
 One electron energy                 -303.45521682
 Two electron energy                  133.51322321
 Virial ratio                           2.55801281

 !MCSCF STATE 1.4 Dipole moment         0.00000000     0.00000000     0.00000000
 Dipole moment /Debye                   0.00000000     0.00000000     0.00000000

 Results for state 2.4
 =====================

 !MCSCF STATE 2.4 Energy             -169.941993602553
 Nuclear energy                         0.00000000
 Kinetic energy                       109.07612058
 One electron energy                 -303.45521682
 Two electron energy                  133.51322321
 Virial ratio                           2.55801281

 !MCSCF STATE 2.4 Dipole moment         0.00000000     0.00000000     0.00000000
 Dipole moment /Debye                   0.00000000     0.00000000     0.00000000

 Results for state 3.4
 =====================

 !MCSCF STATE 3.4 Energy             -169.852623909508
 Nuclear energy                         0.00000000
 Kinetic energy                       109.07612058
 One electron energy                 -303.45521682
 Two electron energy                  133.60259291
 Virial ratio                           2.55719348

 !MCSCF STATE 3.4 Dipole moment         0.00000000     0.00000000     0.00000000
 Dipole moment /Debye                   0.00000000     0.00000000     0.00000000



 Results for state 1.6
 =====================

 !MCSCF STATE 1.6 Energy             -169.941993602553
 Nuclear energy                         0.00000000
 Kinetic energy                       109.07612058
 One electron energy                 -303.45521682
 Two electron energy                  133.51322321
 Virial ratio                           2.55801281

 !MCSCF STATE 1.6 Dipole moment         0.00000000     0.00000000     0.00000000
 Dipole moment /Debye                   0.00000000     0.00000000     0.00000000

 Results for state 2.6
 =====================

 !MCSCF STATE 2.6 Energy             -169.941993602553
 Nuclear energy                         0.00000000
 Kinetic energy                       109.07612058
 One electron energy                 -303.45521682
 Two electron energy                  133.51322321
 Virial ratio                           2.55801281

 !MCSCF STATE 2.6 Dipole moment         0.00000000     0.00000000     0.00000000
 Dipole moment /Debye                   0.00000000     0.00000000     0.00000000

 Results for state 3.6
 =====================

 !MCSCF STATE 3.6 Energy             -169.852623909508
 Nuclear energy                         0.00000000
 Kinetic energy                       109.07612058
 One electron energy                 -303.45521682
 Two electron energy                  133.60259291
 Virial ratio                           2.55719348

 !MCSCF STATE 3.6 Dipole moment         0.00000000     0.00000000     0.00000000
 Dipole moment /Debye                   0.00000000     0.00000000     0.00000000



 Results for state 1.7
 =====================

 !MCSCF STATE 1.7 Energy             -169.941993602553
 Nuclear energy                         0.00000000
 Kinetic energy                       109.07612058
 One electron energy                 -303.45521682
 Two electron energy                  133.51322321
 Virial ratio                           2.55801281

 !MCSCF STATE 1.7 Dipole moment         0.00000000     0.00000000     0.00000000
 Dipole moment /Debye                   0.00000000     0.00000000     0.00000000

 Results for state 2.7
 =====================

 !MCSCF STATE 2.7 Energy             -169.941993602553
 Nuclear energy                         0.00000000
 Kinetic energy                       109.07612058
 One electron energy                 -303.45521682
 Two electron energy                  133.51322321
 Virial ratio                           2.55801281

 !MCSCF STATE 2.7 Dipole moment         0.00000000     0.00000000     0.00000000
 Dipole moment /Debye                   0.00000000     0.00000000     0.00000000

 Results for state 3.7
 =====================

 !MCSCF STATE 3.7 Energy             -169.852623909508
 Nuclear energy                         0.00000000
 Kinetic energy                       109.07612058
 One electron energy                 -303.45521682
 Two electron energy                  133.60259291
 Virial ratio                           2.55719348

 !MCSCF STATE 3.7 Dipole moment         0.00000000     0.00000000     0.00000000
 Dipole moment /Debye                   0.00000000     0.00000000     0.00000000

 State-averaged charge density matrix saved on record  5202.2 (density set 1)

 !MCSCF expec        <1.1|EKIN|1.1>   109.076120577266
 !MCSCF expec        <1.4|EKIN|1.4>   109.076120577266
 !MCSCF expec        <2.4|EKIN|2.4>   109.076120577264
 !MCSCF expec        <3.4|EKIN|3.4>   109.076120577262
 !MCSCF expec        <1.6|EKIN|1.6>   109.076120577265
 !MCSCF expec        <2.6|EKIN|2.6>   109.076120577263
 !MCSCF expec        <3.6|EKIN|3.6>   109.076120577266
 !MCSCF expec        <1.7|EKIN|1.7>   109.076120577265
 !MCSCF expec        <2.7|EKIN|2.7>   109.076120577263
 !MCSCF expec        <3.7|EKIN|3.7>   109.076120577266

 !MCSCF expec         <1.1|POT|1.1>   -23.757286174998
 !MCSCF expec         <1.4|POT|1.4>   -23.757286174998
 !MCSCF expec         <2.4|POT|2.4>   -23.757286174998
 !MCSCF expec         <3.4|POT|3.4>   -23.757286174998
 !MCSCF expec         <1.6|POT|1.6>   -23.757286174998
 !MCSCF expec         <2.6|POT|2.6>   -23.757286174998
 !MCSCF expec         <3.6|POT|3.6>   -23.757286174998
 !MCSCF expec         <1.7|POT|1.7>   -23.757286174998
 !MCSCF expec         <2.7|POT|2.7>   -23.757286174998
 !MCSCF expec         <3.7|POT|3.7>   -23.757286174998


 NATURAL ORBITALS (state averaged)
 =================================

   Orb     Occ        Energy       Coefficients

                                   1 1s      1 1s      1 1s      1 1s      1 1s      1 1s      1 1s      1 1s      1 1s      1 3d0  
                                   1 3d2+    1 3d0     1 3d2+    1 3d0     1 3d2+    1 3d0     1 3d2+    1 3d0     1 3d2+    1 3d0  
                                   1 3d2+    1 3d0     1 3d2+    1 3d0     1 3d2+    1 5g0     1 5g4+    1 5g2+    1 5g0     1 5g4+ 
                                   1 5g2+    1 5g0     1 5g4+    1 5g2+    1 5g0     1 5g4+    1 5g2+    1 7i6+    1 7i4+    1 7i2+ 
                                   1 7i0     1 7i6+    1 7i4+    1 7i2+    1 7i0  

   1.1  2.00000    -5.062441     0.999776 -0.000238  0.000170 -0.000043 -0.000061  0.000027  0.000311  0.001449 -0.001313  0.000000
                                 0.000000  0.000000  0.000000  0.000000  0.000000  0.000000  0.000000  0.000000  0.000000  0.000000
                                 0.000000  0.000000  0.000000  0.000000  0.000000  0.000000  0.000000  0.000000  0.000000  0.000000
                                 0.000000  0.000000  0.000000  0.000000  0.000000  0.000000  0.000000  0.000000  0.000000  0.000000
                                 0.000000  0.000000  0.000000  0.000000  0.000000

   2.1  2.00000    -0.280545     0.000115  1.000186 -0.000112  0.000037  0.000036 -0.000015 -0.000235 -0.000652  0.000592  0.000000
                                 0.000000  0.000000  0.000000  0.000000  0.000000  0.000000  0.000000  0.000000  0.000000  0.000000
                                 0.000000  0.000000  0.000000  0.000000  0.000000  0.000000  0.000000  0.000000  0.000000  0.000000
                                 0.000000  0.000000  0.000000  0.000000  0.000000  0.000000  0.000000  0.000000  0.000000  0.000000
                                 0.000000  0.000000  0.000000  0.000000  0.000000

   3.1  1.60000    -0.496379     0.000000  0.000000  0.000000  0.000000  0.000000  0.000000  0.000000  0.000000  0.000000  1.000121
                                 0.000000  0.002954  0.000000  0.002376  0.000000  0.001288  0.000000 -0.001275  0.000000 -0.004078
                                 0.000000  0.024591  0.000000 -0.023679  0.000000  0.000000  0.000000  0.000000  0.000000  0.000000
                                 0.000000  0.000000  0.000000  0.000000  0.000000  0.000000  0.000000  0.000000  0.000000  0.000000
                                 0.000000  0.000000  0.000000  0.000000  0.000000

   4.1  1.60000    -0.496379     0.000000  0.000000  0.000000  0.000000  0.000000  0.000000  0.000000  0.000000  0.000000  0.000000
                                 1.000121  0.000000  0.002954  0.000000  0.002376  0.000000  0.001288  0.000000 -0.001275  0.000000
                                -0.004078  0.000000  0.024591  0.000000 -0.023679  0.000000  0.000000  0.000000  0.000000  0.000000
                                 0.000000  0.000000  0.000000  0.000000  0.000000  0.000000  0.000000  0.000000  0.000000  0.000000
                                 0.000000  0.000000  0.000000  0.000000  0.000000

                                   1 2px     1 2px     1 2px     1 2px     1 2px     1 2px     1 2px     1 2px     1 2px     1 4f1+ 
                                   1 4f3+    1 4f1+    1 4f3+    1 4f1+    1 4f3+    1 4f1+    1 4f3+    1 4f1+    1 4f3+    1 6h1+ 
                                   1 6h3+    1 6h5+    1 6h1+    1 6h3+    1 6h5+    1 6h1+    1 6h3+    1 6h5+ 

   1.2  2.00000    -3.356844     0.999913 -0.000014  0.000038 -0.000024  0.000013  0.000006  0.000005  0.000121 -0.000029  0.000000
                                 0.000000  0.000000  0.000000  0.000000  0.000000  0.000000  0.000000  0.000000  0.000000  0.000000
                                 0.000000  0.000000  0.000000  0.000000  0.000000  0.000000  0.000000  0.000000

                                   1 2py     1 2py     1 2py     1 2py     1 2py     1 2py     1 2py     1 2py     1 2py     1 4f1- 
                                   1 4f3-    1 4f1-    1 4f3-    1 4f1-    1 4f3-    1 4f1-    1 4f3-    1 4f1-    1 4f3-    1 6h1- 
                                   1 6h3-    1 6h5-    1 6h1-    1 6h3-    1 6h5-    1 6h1-    1 6h3-    1 6h5- 

   1.3  2.00000    -3.356844     0.999913 -0.000014  0.000038 -0.000024  0.000013  0.000006  0.000005  0.000121 -0.000029  0.000000
                                 0.000000  0.000000  0.000000  0.000000  0.000000  0.000000  0.000000  0.000000  0.000000  0.000000
                                 0.000000  0.000000  0.000000  0.000000  0.000000  0.000000  0.000000  0.000000

                                   1 3d2-    1 3d2-    1 3d2-    1 3d2-    1 3d2-    1 3d2-    1 3d2-    1 3d2-    1 5g2-    1 5g4- 
                                   1 5g2-    1 5g4-    1 5g2-    1 5g4-    1 5g2-    1 5g4-    1 7i2-    1 7i6-    1 7i4-    1 7i2- 
                                   1 7i6-    1 7i4- 

   1.4  1.60000    -0.496379     1.000121  0.002954  0.002376  0.001288 -0.001275 -0.004078  0.024591 -0.023679  0.000000  0.000000
                                 0.000000  0.000000  0.000000  0.000000  0.000000  0.000000  0.000000  0.000000  0.000000  0.000000
                                 0.000000  0.000000

                                   1 2pz     1 2pz     1 2pz     1 2pz     1 2pz     1 2pz     1 2pz     1 2pz     1 2pz     1 4f0  
                                   1 4f2+    1 4f0     1 4f2+    1 4f0     1 4f2+    1 4f0     1 4f2+    1 4f0     1 4f2+    1 6h2+ 
                                   1 6h4+    1 6h0     1 6h2+    1 6h4+    1 6h0     1 6h2+    1 6h4+    1 6h0  

   1.5  2.00000    -3.356844     0.999913 -0.000014  0.000038 -0.000024  0.000013  0.000006  0.000005  0.000121 -0.000029  0.000000
                                 0.000000  0.000000  0.000000  0.000000  0.000000  0.000000  0.000000  0.000000  0.000000  0.000000
                                 0.000000  0.000000  0.000000  0.000000  0.000000  0.000000  0.000000  0.000000

                                   1 3d1+    1 3d1+    1 3d1+    1 3d1+    1 3d1+    1 3d1+    1 3d1+    1 3d1+    1 5g1+    1 5g3+ 
                                   1 5g1+    1 5g3+    1 5g1+    1 5g3+    1 5g1+    1 5g3+    1 7i5+    1 7i3+    1 7i1+    1 7i5+ 
                                   1 7i3+    1 7i1+ 

   1.6  1.60000    -0.496379     1.000121  0.002954  0.002376  0.001288 -0.001275 -0.004078  0.024591 -0.023679  0.000000  0.000000
                                 0.000000  0.000000  0.000000  0.000000  0.000000  0.000000  0.000000  0.000000  0.000000  0.000000
                                 0.000000  0.000000

                                   1 3d1-    1 3d1-    1 3d1-    1 3d1-    1 3d1-    1 3d1-    1 3d1-    1 3d1-    1 5g1-    1 5g3- 
                                   1 5g1-    1 5g3-    1 5g1-    1 5g3-    1 5g1-    1 5g3-    1 7i5-    1 7i3-    1 7i1-    1 7i5- 
                                   1 7i3-    1 7i1- 

   1.7  1.60000    -0.496379     1.000121  0.002954  0.002376  0.001288 -0.001275 -0.004078  0.024591 -0.023679  0.000000  0.000000
                                 0.000000  0.000000  0.000000  0.000000  0.000000  0.000000  0.000000  0.000000  0.000000  0.000000
                                 0.000000  0.000000
 

 EXTRA SYMMETRY OF MOS IN SYMMETRY 1:   1 1 2 3 1 3 2 1 2 3   1 2 3 1 4 5 6 2 3 1   5 4 6 2 3 4 5 6 8 9  10 7 2 3 1 5 4 6 2 3
                                        8 910 7 1
 EXTRA SYMMETRY OF MOS IN SYMMETRY 2:   1 1 1 1 3 2 1 3 2 1   5 4 6 2 3 1 2 3 5 4   6 1 2 3 5 4 6 1
 EXTRA SYMMETRY OF MOS IN SYMMETRY 3:   1 1 1 1 3 2 1 3 2 1   5 4 6 2 3 1 2 3 5 4   6 1 2 3 5 4 6 1
 EXTRA SYMMETRY OF MOS IN SYMMETRY 4:   1 1 1 1 3 2 1 3 2 1   3 2 6 4 5 1 3 2 1 6   4 5
 EXTRA SYMMETRY OF MOS IN SYMMETRY 5:   1 1 1 1 3 2 1 3 2 1   6 5 4 2 3 1 2 3 6 5   4 1 3 2 6 5 4 1
 EXTRA SYMMETRY OF MOS IN SYMMETRY 6:   1 1 1 1 3 2 1 2 3 1   2 3 6 5 4 1 2 3 1 6   5 4
 EXTRA SYMMETRY OF MOS IN SYMMETRY 7:   1 1 1 1 3 2 1 2 3 1   2 3 6 5 4 1 2 3 1 6   5 4
 EXTRA SYMMETRY OF MOS IN SYMMETRY 8:   1 1 2 3 1 1 3 2 1 3   2

 Natural orbital dump (state averaged) at molpro section  5202.2    (Orbital set 2)


 CI vector for state symmetry 1
 ==============================

 aa 2 2 2          1.0000000

 TOTAL ENERGIES                      -169.94199360

 CI vector for state symmetry 2
 ==============================

 a2 a 2 2          1.0000000   0.0000000   0.0000000
 22 2 a a          0.0000000   0.8944272   0.4472136
 2a a 2 2          0.0000000  -0.4472136   0.8944272

 TOTAL ENERGIES                      -169.94199360  -169.94199360  -169.85262391

 CI vector for state symmetry 3
 ==============================

 22 a 2 a          0.3759782   0.8115666  -0.4472136
 a2 2 a 2          0.6164829   0.1412405   0.7745967
 2a 2 a 2          0.6918015  -0.5669310  -0.4472136

 TOTAL ENERGIES                      -169.94199360  -169.94199360  -169.85262391

 CI vector for state symmetry 4
 ==============================

 22 a a 2         -0.3988888   0.8005547  -0.4472136
 a2 2 2 a         -0.6202476   0.1236647   0.7745967
 2a 2 2 a          0.6754115   0.5863610   0.4472136

 TOTAL ENERGIES                      -169.94199360  -169.94199360  -169.85262391



 **********************************************************************************************************************************
 DATASETS  * FILE   NREC   LENGTH (MB)   RECORD NAMES
              1      21      141.12       500      610      700      900      950      970     1000      129      960     1100   
                                          VAR    BASINP    GEOM    SYMINP    ZMAT    AOBASIS   BASIS     P2S    ABASIS      S 
                                         1400     1410     1420     1200     1210     1080     1600     1650     1300     1700   
                                         EKIN       V       ECP      H0       H01     AOSYM     SMH    MOLCAS    ERIS     OPER   
                                         1380   
                                         JKOP   

              2       5        5.68       700     1000      520     4202     5202   
                                         GEOM     BASIS   MCVARS     RHF     MCSCF   

 PROGRAMS   *        TOTAL     MULTI       POP       RHF       INT
 CPU TIMES  *        60.92      1.49      0.01      1.26     58.04
 REAL TIME  *        67.90 SEC
 DISK USED  *       433.68 MB      
 **********************************************************************************************************************************


 PROGRAM * RHF-SCF (OPEN SHELL)       Authors: W. Meyer, H.-J. Werner


 NUMBER OF ELECTRONS:      10+    8-    SPACE SYMMETRY=1    SPIN SYMMETRY: Triplet 
 CONVERGENCE THRESHOLDS:    1.00E-05 (Density)    1.00E-07 (Energy)
 MAX. NUMBER OF ITERATIONS:        0
 INTERPOLATION TYPE:            DIIS
 INTERPOLATION STEPS:              2 (START)      1 (STEP)
 LEVEL SHIFTS:                 -0.60 (CLOSED) -0.30 (OPEN) 


 Singly occupied orbitals:      3.1       4.1
 
 Extra symmetries of mos in symmetry 1:   1   1   3   2
 Molecular orbitals read from record     5202.2  Type=MCSCF/NATURAL (state averaged)

 Molecular orbital dump at record        2101.2

 ITERATION    DDIFF          GRAD             ENERGY        2-EL.EN.            DIPOLE MOMENTS         DIIS   ORB.
    1      0.000D+00      0.000D+00      -169.94199360    267.026446    0.00000    0.00000    0.00000    0    start

 Final alpha occupancy:   4   1   1   1   1   1   1   0
 Final beta  occupancy:   2   1   1   1   1   1   1   0

 !RHF STATE 1.1 Energy               -169.941993602553
 Nuclear energy                         0.00000000
 One-electron energy                 -303.45521682
 Two-electron energy                  133.51322321
 Virial quotient                       -1.55801281
 !RHF STATE 1.1 Dipole moment           0.00000000     0.00000000     0.00000000
 Dipole moment /Debye                   0.00000000     0.00000000     0.00000000
 

 !RHF expec          <1.1|EKIN|1.1>   109.076120577266
 
 !RHF expec           <1.1|POT|1.1>   -23.757286174998

 ELECTRON ORBITALS
 =================


   Orb  Occ    Energy  Couls-En    Coefficients

                                   1 1s      1 1s      1 1s      1 1s      1 1s      1 1s      1 1s      1 1s      1 1s      1 3d0  
                                   1 3d2+    1 3d0     1 3d2+    1 3d0     1 3d2+    1 3d0     1 3d2+    1 3d0     1 3d2+    1 3d0  
                                   1 3d2+    1 3d0     1 3d2+    1 3d0     1 3d2+    1 5g0     1 5g4+    1 5g2+    1 5g0     1 5g4+ 
                                   1 5g2+    1 5g0     1 5g4+    1 5g2+    1 5g0     1 5g4+    1 5g2+    1 7i6+    1 7i4+    1 7i2+ 
                                   1 7i0     1 7i6+    1 7i4+    1 7i2+    1 7i0  

   1.1   2    -5.0624  -26.5685  0.999776 -0.000238  0.000170 -0.000043 -0.000061  0.000027  0.000311  0.001449 -0.001313  0.000000
                                 0.000000  0.000000  0.000000  0.000000  0.000000  0.000000  0.000000  0.000000  0.000000  0.000000
                                 0.000000  0.000000  0.000000  0.000000  0.000000  0.000000  0.000000  0.000000  0.000000  0.000000
                                 0.000000  0.000000  0.000000  0.000000  0.000000  0.000000  0.000000  0.000000  0.000000  0.000000
                                 0.000000  0.000000  0.000000  0.000000  0.000000

   2.1   2    -0.2805   -7.0788  0.000115  1.000186 -0.000112  0.000037  0.000036 -0.000015 -0.000235 -0.000652  0.000592  0.000000
                                 0.000000  0.000000  0.000000  0.000000  0.000000  0.000000  0.000000  0.000000  0.000000  0.000000
                                 0.000000  0.000000  0.000000  0.000000  0.000000  0.000000  0.000000  0.000000  0.000000  0.000000
                                 0.000000  0.000000  0.000000  0.000000  0.000000  0.000000  0.000000  0.000000  0.000000  0.000000
                                 0.000000  0.000000  0.000000  0.000000  0.000000

   3.1   +    -0.4964  -16.6027  0.000000  0.000000  0.000000  0.000000  0.000000  0.000000  0.000000  0.000000  0.000000  0.000000
                                 1.000121  0.000000  0.002954  0.000000  0.002376  0.000000  0.001288  0.000000 -0.001275  0.000000
                                -0.004078  0.000000  0.024591  0.000000 -0.023679  0.000000  0.000000  0.000000  0.000000  0.000000
                                 0.000000  0.000000  0.000000  0.000000  0.000000  0.000000  0.000000  0.000000  0.000000  0.000000
                                 0.000000  0.000000  0.000000  0.000000  0.000000

   4.1   +    -0.4964  -16.6027  0.000000  0.000000  0.000000  0.000000  0.000000  0.000000  0.000000  0.000000  0.000000  1.000121
                                 0.000000  0.002954  0.000000  0.002376  0.000000  0.001288  0.000000 -0.001275  0.000000 -0.004078
                                 0.000000  0.024591  0.000000 -0.023679  0.000000  0.000000  0.000000  0.000000  0.000000  0.000000
                                 0.000000  0.000000  0.000000  0.000000  0.000000  0.000000  0.000000  0.000000  0.000000  0.000000
                                 0.000000  0.000000  0.000000  0.000000  0.000000

                                   1 2px     1 2px     1 2px     1 2px     1 2px     1 2px     1 2px     1 2px     1 2px     1 4f1+ 
                                   1 4f3+    1 4f1+    1 4f3+    1 4f1+    1 4f3+    1 4f1+    1 4f3+    1 4f1+    1 4f3+    1 6h1+ 
                                   1 6h3+    1 6h5+    1 6h1+    1 6h3+    1 6h5+    1 6h1+    1 6h3+    1 6h5+ 

   1.2   2    -3.3568  -23.0228  0.999913 -0.000014  0.000038 -0.000024  0.000013  0.000006  0.000005  0.000121 -0.000029  0.000000
                                 0.000000  0.000000  0.000000  0.000000  0.000000  0.000000  0.000000  0.000000  0.000000  0.000000
                                 0.000000  0.000000  0.000000  0.000000  0.000000  0.000000  0.000000  0.000000

                                   1 2py     1 2py     1 2py     1 2py     1 2py     1 2py     1 2py     1 2py     1 2py     1 4f1- 
                                   1 4f3-    1 4f1-    1 4f3-    1 4f1-    1 4f3-    1 4f1-    1 4f3-    1 4f1-    1 4f3-    1 6h1- 
                                   1 6h3-    1 6h5-    1 6h1-    1 6h3-    1 6h5-    1 6h1-    1 6h3-    1 6h5- 

   1.3   2    -3.3568  -23.0228  0.999913 -0.000014  0.000038 -0.000024  0.000013  0.000006  0.000005  0.000121 -0.000029  0.000000
                                 0.000000  0.000000  0.000000  0.000000  0.000000  0.000000  0.000000  0.000000  0.000000  0.000000
                                 0.000000  0.000000  0.000000  0.000000  0.000000  0.000000  0.000000  0.000000

                                   1 3d2-    1 3d2-    1 3d2-    1 3d2-    1 3d2-    1 3d2-    1 3d2-    1 3d2-    1 5g2-    1 5g4- 
                                   1 5g2-    1 5g4-    1 5g2-    1 5g4-    1 5g2-    1 5g4-    1 7i2-    1 7i6-    1 7i4-    1 7i2- 
                                   1 7i6-    1 7i4- 

   1.4   2    -0.4964  -16.6027  1.000121  0.002954  0.002376  0.001288 -0.001275 -0.004078  0.024591 -0.023679  0.000000  0.000000
                                 0.000000  0.000000  0.000000  0.000000  0.000000  0.000000  0.000000  0.000000  0.000000  0.000000
                                 0.000000  0.000000

                                   1 2pz     1 2pz     1 2pz     1 2pz     1 2pz     1 2pz     1 2pz     1 2pz     1 2pz     1 4f0  
                                   1 4f2+    1 4f0     1 4f2+    1 4f0     1 4f2+    1 4f0     1 4f2+    1 4f0     1 4f2+    1 6h2+ 
                                   1 6h4+    1 6h0     1 6h2+    1 6h4+    1 6h0     1 6h2+    1 6h4+    1 6h0  

   1.5   2    -3.3568  -23.0228  0.999913 -0.000014  0.000038 -0.000024  0.000013  0.000006  0.000005  0.000121 -0.000029  0.000000
                                 0.000000  0.000000  0.000000  0.000000  0.000000  0.000000  0.000000  0.000000  0.000000  0.000000
                                 0.000000  0.000000  0.000000  0.000000  0.000000  0.000000  0.000000  0.000000

                                   1 3d1+    1 3d1+    1 3d1+    1 3d1+    1 3d1+    1 3d1+    1 3d1+    1 3d1+    1 5g1+    1 5g3+ 
                                   1 5g1+    1 5g3+    1 5g1+    1 5g3+    1 5g1+    1 5g3+    1 7i5+    1 7i3+    1 7i1+    1 7i5+ 
                                   1 7i3+    1 7i1+ 

   1.6   2    -0.4964  -16.6027  1.000121  0.002954  0.002376  0.001288 -0.001275 -0.004078  0.024591 -0.023679  0.000000  0.000000
                                 0.000000  0.000000  0.000000  0.000000  0.000000  0.000000  0.000000  0.000000  0.000000  0.000000
                                 0.000000  0.000000

                                   1 3d1-    1 3d1-    1 3d1-    1 3d1-    1 3d1-    1 3d1-    1 3d1-    1 3d1-    1 5g1-    1 5g3- 
                                   1 5g1-    1 5g3-    1 5g1-    1 5g3-    1 5g1-    1 5g3-    1 7i5-    1 7i3-    1 7i1-    1 7i5- 
                                   1 7i3-    1 7i1- 

   1.7   2    -0.4964  -16.6027  1.000121  0.002954  0.002376  0.001288 -0.001275 -0.004078  0.024591 -0.023679  0.000000  0.000000
                                 0.000000  0.000000  0.000000  0.000000  0.000000  0.000000  0.000000  0.000000  0.000000  0.000000
                                 0.000000  0.000000

 HOMO      4.1    -0.496379 =     -13.5072eV
 LUMO      2.2     0.044498 =       1.2109eV
 LUMO-HOMO         0.540877 =      14.7180eV


 **********************************************************************************************************************************
 DATASETS  * FILE   NREC   LENGTH (MB)   RECORD NAMES
              1      21      141.12       500      610      700      900      950      970     1000      129      960     1100   
                                          VAR    BASINP    GEOM    SYMINP    ZMAT    AOBASIS   BASIS     P2S    ABASIS      S 
                                         1400     1410     1420     1200     1210     1080     1600     1650     1300     1700   
                                         EKIN       V       ECP      H0       H01     AOSYM     SMH    MOLCAS    ERIS     OPER   
                                         1380   
                                         JKOP   

              2       6        8.63       700     1000      520     4202     5202     2101   
                                         GEOM     BASIS   MCVARS     RHF     MCSCF     RHF  

 PROGRAMS   *        TOTAL       RHF     MULTI       POP       RHF       INT
 CPU TIMES  *        61.04      0.12      1.49      0.01      1.26     58.04
 REAL TIME  *        68.17 SEC
 DISK USED  *       433.68 MB      
 **********************************************************************************************************************************
 SETTING SCF(I)         =      -169.94199360  AU                              
 SETTING _CC_NORM_MAX   =         2.00000000                                  


 PROGRAM * CCSD (Unrestricted open-shell coupled cluster)     Authors: C. Hampel, H.-J. Werner, 1991, M. Deegan, P.J. Knowles, 1992


 Convergence thresholds:  THRVAR = 1.00D-08  THRDEN = 1.00D-06

 CCSD(T)     terms to be evaluated (factor= 1.000)


 Number of closed-shell orbitals:   8 (   2   1   1   1   1   1   1   0 )
 Number of active  orbitals:        2 (   2   0   0   0   0   0   0   0 )
 Number of external orbitals:     196 (  41  27  27  21  27  21  21  11 )

 Memory could be reduced to 18.14 Mwords without degradation in triples

 Number of N-1 electron functions:              18
 Number of N-2 electron functions:             153
 Number of singly external CSFs:               546
 Number of doubly external CSFs:            574979
 Total number of CSFs:                      575525

 Molecular orbitals read from record     2101.2  Type=RHF/CANONICAL (state 1.1)

 Integral transformation finished. Total CPU:   0.50 sec, npass=  1  Memory used:   3.79 MW

 Starting RMP2 calculation

 ITER.      SQ.NORM     CORR.ENERGY   TOTAL ENERGY   ENERGY CHANGE        DEN1      VAR(S)    VAR(P)  DIIS     TIME
   1      1.11064979    -0.88734776  -170.82934136    -0.88734776    -0.00135324  0.14D-04  0.77D-03  1  1     0.54
   2      1.11263392    -0.88877687  -170.83077047    -0.00142911    -0.00001686  0.43D-06  0.16D-04  2  2     0.57
   3      1.11294707    -0.88890239  -170.83089599    -0.00012552    -0.00000008  0.83D-08  0.65D-07  3  3     0.59
   4      1.11296033    -0.88890529  -170.83089890    -0.00000290    -0.00000000  0.24D-09  0.43D-09  4  4     0.62
   5      1.11296035    -0.88890522  -170.83089882     0.00000008    -0.00000000  0.55D-11  0.24D-11  5  5     0.66

 Norm of t1 vector:      0.04264939      S-energy:    -0.00933348      T1 diagnostic:  0.00415043
 Norm of t2 vector:      0.33337873      P-energy:    -0.87957174
                                         Alpha-Beta:  -0.62674606
                                         Alpha-Alpha: -0.16058664
                                         Beta-Beta:   -0.09223904

 Spin contamination <S**2-Sz**2-Sz>     0.00320634
  Reference energy                   -169.941993602553
  RHF-RMP2 correlation energy          -0.888905216318
 !RHF-RMP2 energy                    -170.830898818871

 Starting UCCSD calculation

 ITER.      SQ.NORM     CORR.ENERGY   TOTAL ENERGY   ENERGY CHANGE        DEN1      VAR(S)    VAR(P)  DIIS     TIME
   1      1.10315467    -0.82673671  -170.76873031    -0.82673671    -0.02506229  0.48D-02  0.41D-02  0  0     1.84
   2      1.11935920    -0.84922075  -170.79121435    -0.02248404    -0.00275227  0.51D-03  0.91D-03  1  1     2.96
   3      1.12454038    -0.84770760  -170.78970120     0.00151315    -0.00054817  0.29D-03  0.20D-03  2  2     4.13
   4      1.13147028    -0.84995578  -170.79194938    -0.00224818    -0.00007295  0.35D-04  0.27D-04  3  3     5.29
   5      1.13474588    -0.85084060  -170.79283421    -0.00088482    -0.00000654  0.36D-05  0.18D-05  4  4     6.44
   6      1.13554731    -0.85094768  -170.79294128    -0.00010708    -0.00000050  0.88D-07  0.21D-06  5  5     7.64
   7      1.13562580    -0.85095757  -170.79295117    -0.00000989    -0.00000013  0.20D-07  0.61D-07  6  6     8.82
   8      1.13564907    -0.85096243  -170.79295604    -0.00000487    -0.00000003  0.12D-08  0.18D-07  6  3    10.01
   9      1.13563227    -0.85095907  -170.79295268     0.00000336    -0.00000001  0.14D-08  0.33D-08  6  1    11.20
  10      1.13562859    -0.85095896  -170.79295256     0.00000011    -0.00000000  0.93D-10  0.68D-09  6  2    12.40

 Norm of t1 vector:      0.12419209      S-energy:    -0.00934942      T1 diagnostic:  0.01921264
                                                                       D1 diagnostic:  0.06469673
 Norm of t2 vector:      0.34670580      P-energy:    -0.84160954
                                         Alpha-Beta:  -0.62030902
                                         Alpha-Alpha: -0.13980289
                                         Beta-Beta:   -0.08149763

 Singles amplitudes (print threshold =  0.500E-01):

         I         SYM. A    A   T(IA) [Alpha-Alpha]

         2         1         3     -0.05844984
         2         1         6      0.05218554

 Doubles amplitudes (print threshold =  0.500E-01):

         I         J         SYM. A    SYM. B    A         B      T(IJ, AB) [Alpha-Beta]

         2         2         2         2         1         1     -0.06332050
         2         2         2         2         1         2      0.05112436
         2         2         2         2         2         1      0.05268537
         2         2         3         3         1         1     -0.06332050
         2         2         3         3         1         2      0.05112436
         2         2         3         3         2         1      0.05268537
         2         2         5         5         1         1     -0.06332050
         2         2         5         5         1         2      0.05112436
         2         2         5         5         2         1      0.05268536

 Spin contamination <S**2-Sz**2-Sz>     0.00317446

 Memory could be reduced to 19.42 Mwords without degradation in triples
 

  Correlated core orbitals:             1.1       1.2       1.3       1.5
  Orbital energies:                    -5.1652   -3.4817   -3.4817   -3.4817
 
  UCCSD core-core energy               -0.144616122037
  UCCSD core-valence energy            -0.354261592946
  UCCSD valence correlation energy     -0.352081244180
 

 RESULTS
 =======

  Reference energy                   -169.941993602553
  UCCSD singles energy                 -0.009349420737
  UCCSD pair energy                    -0.841609538425
  UCCSD correlation energy             -0.850958959163
  Triples (T) contribution             -0.025099755223
  Total correlation energy             -0.876058714386
 
  RHF-UCCSD energy                   -170.792952561715
  RHF-UCCSD[T] energy                -170.819506613665
  RHF-UCCSD-T energy                 -170.817681693213
 !RHF-UCCSD(T) energy                -170.818052316938

 Program statistics:

 Available memory in ccsd:               511999000
 Min. memory needed in ccsd:               1731149
 Max. memory used in ccsd:                 2429421
 Max. memory used in cckext:               1888025 (10 integral passes)
 Max. memory used in cckint:               3788388 ( 1 integral passes)



 **********************************************************************************************************************************
 DATASETS  * FILE   NREC   LENGTH (MB)   RECORD NAMES
              1      21      141.12       500      610      700      900      950      970     1000      129      960     1100   
                                          VAR    BASINP    GEOM    SYMINP    ZMAT    AOBASIS   BASIS     P2S    ABASIS      S 
                                         1400     1410     1420     1200     1210     1080     1600     1650     1300     1700   
                                         EKIN       V       ECP      H0       H01     AOSYM     SMH    MOLCAS    ERIS     OPER   
                                         1380   
                                         JKOP   

              2       6        8.63       700     1000      520     4202     5202     2101   
                                         GEOM     BASIS   MCVARS     RHF     MCSCF     RHF  

 PROGRAMS   *        TOTAL  UCCSD(T)       RHF     MULTI       POP       RHF       INT
 CPU TIMES  *       114.01     52.97      0.12      1.49      0.01      1.26     58.04
 REAL TIME  *       127.54 SEC
 DISK USED  *       477.71 MB      
 **********************************************************************************************************************************
 SETTING POSTHF(I)      =      -170.81805232  AU                              
                                                                                                                                                                                                                                                                

         SCF            POSTHF        EKIN          POT
    -169.9419936   -170.8180523   109.0761206   -23.75728617
                                                  

 UCCSD(T)/USERDEF energy=   -170.818052316938

        UCCSD(T)        RHF-SCF         MULTI           RHF-SCF 
   -170.81805232   -169.94199360   -169.85262391   -169.92906751
 **********************************************************************************************************************************
 Molpro calculation terminated
 Variable memory released
