TACC:  Starting up job 2697179 
TACC:  Starting parallel tasks... 
  Input file(s): Si.log.qmc.in-wfj.xml 

=====================================================
                    QMCPACK 3.5.0 

       (c) Copyright 2003-  QMCPACK developers

                    Please cite:
 J. Kim et al. J. Phys. Cond. Mat. 30 195901 (2018)
      https://doi.org/10.1088/1361-648X/aab9c3

  Git branch: develop
  Last git commit: ca320f40410f5ef17c38db08d5c54848ef64bfe1
  Last git commit date: Tue Dec 18 15:37:17 2018 +0800
  Last git commit subject: Merge pull request #764 from Paul-St-Young/dat-h5
=====================================================
  Global options 

  MPI Nodes             = 1024
  MPI Nodes per group   = 1024
  MPI Group ID          = 0
  OMP 1st level threads = 1
  OMP nested threading disabled or only 1 thread on the 2nd level

  Precision used in this calculation, see definitions in the manual:
  Base precision      = double
  Full precision      = double

  Structure-of-arrays (SoA) optimization enabled

  Input XML = Si.log.qmc.in-wfj.xml

  Project = Si.log
  date    = 2018-12-27 16:53:16 CST
  host    = c415-074.stampede2.tacc.utexas.edu

 Random Number
 -------------
  Offset for the random number seeds based on time: 988

  Range of prime numbers to use as seeds over processors and threads = 7829-17497


 Particle Set 
 ------------
  Name: ion0
  All the species have the same mass 1
  Particle set size: 1

 Particle Set 
 ------------
  Name: e
  All the species have the same mass 1
  Particle set size: 4

 Wavefunction setup: 
 ------------------- 
  Name: psi0
  LCAO: SoaAtomicBasisSet<MultiQuintic,0>

  Distance table for similar particles (A-A):
    source/target: e
    Using structure-of-arrays (SoA) data layout
    Distance computations use open boundary conditions in 3D.


  Distance table for dissimilar particles (A-B):
    source: ion0  target: e
    Using structure-of-arrays (SoA) data layout
    Distance computations use open boundary conditions in 3D.

Reading BasisSet from HDF5 file:Si.log.orbs.h5
<input node="atomicBasisSet" name="Gaussian" expandYlm="gaussian" angular="cartesian" elementType="Si" normalized="no" type="Numerical" expM="0" />
  AO BasisSet for Si
   Angular momentum expanded in cartesian functions x^lx y^ly z^lz according to Gamess
   Grid is created by the input paremters in h5
    Using log grid ri = 1e-06 rf = 100 npts = 1001
   R(n,l,m,s) 0 0 0 0
   R(n,l,m,s) 1 0 0 0
   R(n,l,m,s) 2 0 0 0
   R(n,l,m,s) 3 0 0 0
   R(n,l,m,s) 4 1 0 0
   R(n,l,m,s) 5 1 0 0
   R(n,l,m,s) 6 1 0 0
   R(n,l,m,s) 7 1 0 0
   R(n,l,m,s) 8 2 0 0
   R(n,l,m,s) 9 2 0 0
   R(n,l,m,s) 10 2 0 0
   R(n,l,m,s) 11 3 0 0
   R(n,l,m,s) 12 3 0 0
   R(n,l,m,s) 13 4 0 0
Expanding Ylm (angular function) according to Gamess using cartesian gaussians
Adding 1 cartesian gaussian orbitals for l= 0
Adding 1 cartesian gaussian orbitals for l= 0
Adding 1 cartesian gaussian orbitals for l= 0
Adding 1 cartesian gaussian orbitals for l= 0
Adding 3 cartesian gaussian orbitals for l= 1
Adding 3 cartesian gaussian orbitals for l= 1
Adding 3 cartesian gaussian orbitals for l= 1
Adding 3 cartesian gaussian orbitals for l= 1
Adding 6 cartesian gaussian orbitals for l= 2
Adding 6 cartesian gaussian orbitals for l= 2
Adding 6 cartesian gaussian orbitals for l= 2
Adding 10 cartesian gaussian orbitals for l= 3
Adding 10 cartesian gaussian orbitals for l= 3
Adding 15 cartesian gaussian orbitals for l= 4
   Maximum Angular Momentum  = 4
   Number of Radial functors = 14
   Basis size                = 69

  Created SPOSet builder named 'LCAOBSet' of type molecularorbital
Reuse SPOSetBuilder "LCAOBSet" type MolecularOrbital
  Building SPOSet '' with '' basis set.
Reuse SPOSetBuilder "LCAOBSet" type MolecularOrbital
  Building SPOSet '' with '' basis set.
  Creating a determinant updet group=0 sposet=updet
  Reusing a SPO set updet
Using DiracDeterminant 
Using rank-1 Sherman-Morrison Fahy update

  Creating a determinant downdet group=1 sposet=downdet
  Reusing a SPO set downdet
Using DiracDeterminant 
Using rank-1 Sherman-Morrison Fahy update

  FermionWF = SlaterDet
  RadialJastrowBuilder adds a functor with cusp = -0.25
 size = 10 parameters 
 cusp = -0.25
 rcut = 9.5
Parameter     Name      Value
uu_0 0 1 1  ON 0
uu_1 0 1 1  ON 1
uu_2 0 1 1  ON 2
uu_3 0 1 1  ON 3
uu_4 0 1 1  ON 4
uu_5 0 1 1  ON 5
uu_6 0 1 1  ON 6
uu_7 0 1 1  ON 7
uu_8 0 1 1  ON 8
uu_9 0 1 1  ON 9
  RadialJastrowBuilder adds a functor with cusp = -0.5
 size = 10 parameters 
 cusp = -0.5
 rcut = 9.5
Parameter     Name      Value
ud_0 0 1 1  ON 0
ud_1 0 1 1  ON 1
ud_2 0 1 1  ON 2
ud_3 0 1 1  ON 3
ud_4 0 1 1  ON 4
ud_5 0 1 1  ON 5
ud_6 0 1 1  ON 6
ud_7 0 1 1  ON 7
ud_8 0 1 1  ON 8
ud_9 0 1 1  ON 9
 size = 10 parameters 
 cusp = 0
 rcut = 9.5
Parameter     Name      Value
eSi_0 0 1 1  ON 0
eSi_1 0 1 1  ON 1
eSi_2 0 1 1  ON 2
eSi_3 0 1 1  ON 3
eSi_4 0 1 1  ON 4
eSi_5 0 1 1  ON 5
eSi_6 0 1 1  ON 6
eSi_7 0 1 1  ON 7
eSi_8 0 1 1  ON 8
eSi_9 0 1 1  ON 9
Expected 26 parameters, but found 0 in PolynomialFunctor3D.
Expected 26 parameters, but found 0 in PolynomialFunctor3D.
  QMCHamiltonian::addOperator Kinetic to H, physical Hamiltonian 
  QMCHamiltonian::addOperator ElecElec to H, physical Hamiltonian 
QMCHamiltonian::addOperatorType added type coulomb named ElecElec
  CoulombAA for ion0 is not created.  Number of particles == 1 and nonPeriodic

  ECPotential builder for pseudopotential 

  Adding pseudopotential for Si
   Linear grid  ri=0 rf=10 npts = 10001
    ECPComponentBuilder::buildSemiLocalAndLocal 
    Assuming Hartree unit
   Number of angular momentum channels 3
   Maximum angular momentum channel 2
   Creating a Linear Grid Rmax=2.69
  Using global grid with delta = 0.001
   Making L=2 a local potential with a radial cutoff of 9.999
    Non-local pseudopotential parameters
    Maximum angular mementum = 1
    Number of non-local channels = 2
       l(0)=0
       l(1)=1
    Cutoff radius = 2.69
    Spherical grids and weights: 
                        1                 0                 0       0.08333333333
                       -1   1.224646799e-16                 0       0.08333333333
             0.4472135955       0.894427191                 0       0.08333333333
            -0.4472135955      0.7236067977      0.5257311121       0.08333333333
             0.4472135955      0.2763932023      0.8506508084       0.08333333333
            -0.4472135955     -0.2763932023      0.8506508084       0.08333333333
             0.4472135955     -0.7236067977      0.5257311121       0.08333333333
            -0.4472135955      -0.894427191   1.095357397e-16       0.08333333333
             0.4472135955     -0.7236067977     -0.5257311121       0.08333333333
            -0.4472135955     -0.2763932023     -0.8506508084       0.08333333333
             0.4472135955      0.2763932023     -0.8506508084       0.08333333333
            -0.4472135955      0.7236067977     -0.5257311121       0.08333333333
    Maximum cutoff radius 2.69
  QMCHamiltonian::addOperator LocalECP to H, physical Hamiltonian 

  Using NonLocalECP potential 
    Maximum grid on a sphere for NonLocalECPotential: 12
  QMCHamiltonian::addOperator NonLocalECP to H, physical Hamiltonian 
QMCHamiltonian::addOperatorType added type pseudo named PseudoPot

  QMCHamiltonian::add2WalkerProperty added
    4 to P::PropertyList 
    0 to P::Collectables 
    starting Index of the observables in P::PropertyList = 9
ParticleSetPool::randomize 
<init source="ion0" target="e">
</init>
  Initialization Execution time = 0.611 secs
=========================================================
 Summary of QMC systems 
=========================================================
ParticleSetPool has: 

  ParticleSet e : 0 3 4 

    4

    u  3.4772446568e-01 -2.2490079895e+00  3.8675133122e-01
    u  7.0706160742e-01 -1.6558840016e+00  1.8408596560e-01
    u -5.3974789960e-02 -3.9220480462e-01  3.7786719423e-01
    d -1.5924825248e+00 -7.1927753167e-01 -8.3260498378e-01

  ParticleSet ion0 : 0 1 

    1

    Si  0.0000000000e+00  0.0000000000e+00  0.0000000000e+00

  Hamiltonian h0
  Kinetic         Kinetic energy
  ElecElec        CoulombAA source/target e

  LocalECP        LocalECPotential: ion0
  NonLocalECP     NonLocalECPotential: ion0

=========================================================
  Start VMC
  File Root Si.log.s000 append = no 
=========================================================
  Adding 1 walkers to 0 existing sets
  Total number of walkers: 1.0240000000e+03
  Total weight: 1.0240000000e+03
  Resetting Properties of the walkers 1 x 13

<vmc function="put">
  qmc_counter=0  my_counter=0
  time step      = 1.5000000000e-01
  blocks         = 200
  steps          = 1
  substeps       = 5
  current        = 0
  target samples = 1.0240000000e+03
  walkers/mpi    = 1

  stepsbetweensamples = 200
<parameter name="blocks" condition="int">200</parameter>
<parameter name="blocks_between_recompute" condition="int">0</parameter>
<parameter name="check_properties" condition="int">100</parameter>
<parameter name="checkproperties" condition="int">100</parameter>
<parameter name="current" condition="int">0</parameter>
<parameter name="dmcwalkersperthread" condition="real">1.0000000000e+00</parameter>
<parameter name="maxcpusecs" condition="real">3.6000000000e+05</parameter>
<parameter name="record_configs" condition="int">0</parameter>
<parameter name="record_walkers" condition="int">200</parameter>
<parameter name="recordconfigs" condition="int">0</parameter>
<parameter name="recordwalkers" condition="int">200</parameter>
<parameter name="rewind" condition="int">0</parameter>
<parameter name="samples" condition="real">1.0240000000e+03</parameter>
<parameter name="samplesperthread" condition="real">1.0000000000e+00</parameter>
<parameter name="steps" condition="int">1</parameter>
<parameter name="stepsbetweensamples" condition="int">200</parameter>
<parameter name="store_configs" condition="int">0</parameter>
<parameter name="storeconfigs" condition="int">0</parameter>
<parameter name="sub_steps" condition="int">5</parameter>
<parameter name="substeps" condition="int">5</parameter>
<parameter name="tau" condition="au">1.5000000000e-01</parameter>
<parameter name="time_step" condition="au">1.5000000000e-01</parameter>
<parameter name="timestep" condition="au">1.5000000000e-01</parameter>
<parameter name="use_drift" condition="string">no</parameter>
<parameter name="usedrift" condition="string">no</parameter>
<parameter name="walkers" condition="int">1</parameter>
<parameter name="warmup_steps" condition="int">100</parameter>
<parameter name="warmupsteps" condition="int">100</parameter>
  DumpConfig==false Nothing (configurations, state) will be saved.
  Walker Samples are dumped every 200 steps.
</vmc>
  Initial partition of walkers 0 1 

  Using Particle by Particle moves
  Walker moves without drift
  Total Sample Size   =1024
  Walker distribution on root = 0 1 
  Using Locality Approximation
===== Memory Usage after the buffer registration =====
Available memory on node 0, free + buffers : 84720 MB
Memory footprint by rank 0 on node 0       : 73 MB
==================================================
  Anonymous Buffer size per walker : 1440 Bytes.
MEMORY increase 0 MB VMC::resetRun
====================================================
  SimpleFixedNodeBranch::finalize after a VMC block
    QMC counter        = 0
    time step          = 0.15
    reference energy   = -3.66708
    reference variance = 0.153976
====================================================
  QMC Execution time = 7.3712e-01 secs 
Loop execution max-interations = 5

=========================================================
  Start QMCFixedSampleLinearOptimize
  File Root Si.log.s001 append = no 
=========================================================
  Skip QMCDriver::putQMCInfo 
  Resetting Properties of the walkers 1 x 13

=========================================================
  Start VMC
  File Root Si.log.s001 append = no 
=========================================================
  Using the current 1 walkers.
  Total number of walkers: 1.0240e+03
  Total weight: 1.0240e+03
  Resetting Properties of the walkers 1 x 13

<vmc function="put">
  qmc_counter=0  my_counter=0
  time step      = 1.5000e-01
  blocks         = 200
  steps          = 2
  substeps       = 5
  current        = 0
  target samples = 2.5600e+05
  walkers/mpi    = 1

  stepsbetweensamples = 1
<parameter name="blocks" condition="int">200</parameter>
<parameter name="blocks_between_recompute" condition="int">0</parameter>
<parameter name="check_properties" condition="int">100</parameter>
<parameter name="checkproperties" condition="int">100</parameter>
<parameter name="current" condition="int">0</parameter>
<parameter name="dmcwalkersperthread" condition="real">2.5000e+02</parameter>
<parameter name="maxcpusecs" condition="real">3.6000e+05</parameter>
<parameter name="record_configs" condition="int">0</parameter>
<parameter name="record_walkers" condition="int">1</parameter>
<parameter name="recordconfigs" condition="int">0</parameter>
<parameter name="recordwalkers" condition="int">1</parameter>
<parameter name="rewind" condition="int">0</parameter>
<parameter name="samples" condition="real">2.5600e+05</parameter>
<parameter name="samplesperthread" condition="real">2.5000e+02</parameter>
<parameter name="steps" condition="int">2</parameter>
<parameter name="stepsbetweensamples" condition="int">1</parameter>
<parameter name="store_configs" condition="int">0</parameter>
<parameter name="storeconfigs" condition="int">0</parameter>
<parameter name="sub_steps" condition="int">5</parameter>
<parameter name="substeps" condition="int">5</parameter>
<parameter name="tau" condition="au">1.5000e-01</parameter>
<parameter name="time_step" condition="au">1.5000e-01</parameter>
<parameter name="timestep" condition="au">1.5000e-01</parameter>
<parameter name="use_drift" condition="string">no</parameter>
<parameter name="usedrift" condition="string">no</parameter>
<parameter name="walkers" condition="int">1</parameter>
<parameter name="warmup_steps" condition="int">0</parameter>
<parameter name="warmupsteps" condition="int">0</parameter>
  DumpConfig==false Nothing (configurations, state) will be saved.
  Walker Samples are dumped every 1 steps.
</vmc>
    Restarting, cummulative properties:
      energy     = -3.6671e+00
      variance   = 0.0000e+00
      r2accepted = 1.0000e-10
      r2proposed = 1.0000e-10
 Using QMCCostFunction::QMCCostFunction
  EstimatorManagerBase::add replace LocalEnergy estimator.
<optimization-report>
<vmc stage="main" blocks="200">
  Cannot make clones again. Use existing 1 clones
  Initial partition of walkers 0 1 

  Using Particle by Particle moves
  Walker moves without drift
  Total Sample Size   =256000
  Walker distribution on root = 0 1 
  Using Locality Approximation
===== Memory Usage after the buffer registration =====
Available memory on node 0, free + buffers : 84716 MB
Memory footprint by rank 0 on node 0       : 74 MB
==================================================
  Anonymous Buffer size per walker : 1440 Bytes.
MEMORY increase 0 MB VMC::resetRun
====================================================
  SimpleFixedNodeBranch::finalize after a VMC block
    QMC counter        = 1
    time step          = 0.15
    reference energy   = -3.67185
    reference variance = 0.176028
====================================================
  Execution time = 1.0388e+00
</vmc>
<opt stage="setup">
  <log>
   Reading configurations from h5FileRoot Si.log.s001
  QMCCostFunction is created with 1 threads.
  Using Nonlocal PP in Opt: NonLocalECP
   Number of samples loaded to each thread : 250 
  VMC Eavg = -3.6757e+00
  VMC Evar = 1.5154e-01
  Total weights = 2.5600e+05
  Execution time = 1.1919e-01
  </log>
</opt>
<opt stage="main" walkers="256000">
  <log>

*****************************************
Building overlap and Hamiltonian matrices
*****************************************

Among totally 30 optimized parameters, largest LM parameter change : 3.6365e-01 at parameter 10

******************************************************************************
Init Cost =   1.5154e-01    New Cost =   6.0312e-02  Delta Cost =  -9.1229e-02
******************************************************************************

The new set of parameters is valid. Updating the trial wave function!

*****************************************************************************
Applying the update for shift_i =   1.0000e-02     and shift_s =   2.5000e-01
*****************************************************************************
  Execution time = 1.3272e+00
  </log>
  <optVariables href="Si.log.s001.opt.xml">
uu_0 8.8589e-02 1 1  ON 0
uu_1 1.6075e-01 1 1  ON 1
uu_2 7.4039e-02 1 1  ON 2
uu_3 2.2958e-02 1 1  ON 3
uu_4 -1.5311e-02 1 1  ON 4
uu_5 -3.8529e-02 1 1  ON 5
uu_6 -5.0955e-02 1 1  ON 6
uu_7 -5.4030e-02 1 1  ON 7
uu_8 -4.6768e-02 1 1  ON 8
uu_9 -3.7378e-02 1 1  ON 9
ud_0 3.6365e-01 1 1  ON 10
ud_1 2.1830e-01 1 1  ON 11
ud_2 6.4334e-02 1 1  ON 12
ud_3 -1.5432e-02 1 1  ON 13
ud_4 -6.4806e-02 1 1  ON 14
ud_5 -8.9846e-02 1 1  ON 15
ud_6 -1.0072e-01 1 1  ON 16
ud_7 -9.9906e-02 1 1  ON 17
ud_8 -8.4941e-02 1 1  ON 18
ud_9 -6.7606e-02 1 1  ON 19
eSi_0 -1.4238e-01 1 1  ON 20
eSi_1 -1.6136e-01 1 1  ON 21
eSi_2 -8.8811e-02 1 1  ON 22
eSi_3 -9.7821e-03 1 1  ON 23
eSi_4 5.9535e-02 1 1  ON 24
eSi_5 9.7387e-02 1 1  ON 25
eSi_6 1.0690e-01 1 1  ON 26
eSi_7 8.4794e-02 1 1  ON 27
eSi_8 4.4083e-02 1 1  ON 28
eSi_9 1.1051e-02 1 1  ON 29
  </optVariables>
   Restore the number of walkers to 1, removing 0 walkers.
</opt>
</optimization-report>
  QMC Execution time = 1.3362e+00 secs 
  Reusing QMCFixedSampleLinearOptimize
 Using QMCCostFunction::QMCCostFunction

=========================================================
  Start QMCFixedSampleLinearOptimize
  File Root Si.log.s002 append = no 
=========================================================
  Skip QMCDriver::putQMCInfo 
  Resetting Properties of the walkers 1 x 13

=========================================================
  Start VMC
  File Root Si.log.s002 append = no 
=========================================================
Using existing walkers 
  Resetting Properties of the walkers 1 x 13

<vmc function="put">
  qmc_counter=1  my_counter=1
  time step      = 1.5000e-01
  blocks         = 200
  steps          = 2
  substeps       = 5
  current        = 0
  target samples = 2.5600e+05
  walkers/mpi    = 1

  stepsbetweensamples = 1
<parameter name="blocks" condition="int">200</parameter>
<parameter name="blocks_between_recompute" condition="int">0</parameter>
<parameter name="check_properties" condition="int">100</parameter>
<parameter name="checkproperties" condition="int">100</parameter>
<parameter name="current" condition="int">0</parameter>
<parameter name="dmcwalkersperthread" condition="real">2.5000e+02</parameter>
<parameter name="maxcpusecs" condition="real">3.6000e+05</parameter>
<parameter name="record_configs" condition="int">0</parameter>
<parameter name="record_walkers" condition="int">1</parameter>
<parameter name="recordconfigs" condition="int">0</parameter>
<parameter name="recordwalkers" condition="int">1</parameter>
<parameter name="rewind" condition="int">0</parameter>
<parameter name="samples" condition="real">2.5600e+05</parameter>
<parameter name="samplesperthread" condition="real">2.5000e+02</parameter>
<parameter name="steps" condition="int">2</parameter>
<parameter name="stepsbetweensamples" condition="int">1</parameter>
<parameter name="store_configs" condition="int">0</parameter>
<parameter name="storeconfigs" condition="int">0</parameter>
<parameter name="sub_steps" condition="int">5</parameter>
<parameter name="substeps" condition="int">5</parameter>
<parameter name="tau" condition="au">1.5000e-01</parameter>
<parameter name="time_step" condition="au">1.5000e-01</parameter>
<parameter name="timestep" condition="au">1.5000e-01</parameter>
<parameter name="use_drift" condition="string">no</parameter>
<parameter name="usedrift" condition="string">no</parameter>
<parameter name="walkers" condition="int">1</parameter>
<parameter name="warmup_steps" condition="int">0</parameter>
<parameter name="warmupsteps" condition="int">0</parameter>
  DumpConfig==false Nothing (configurations, state) will be saved.
  Walker Samples are dumped every 1 steps.
</vmc>
  EstimatorManagerBase::add replace LocalEnergy estimator.
  EstimatorManagerBase::add replace LocalEnergy estimator.
<optimization-report>
<vmc stage="main" blocks="200">
  Cannot make clones again. Use existing 1 clones
  Initial partition of walkers 0 1 
  Using Particle by Particle moves
  Walker moves without drift
  Total Sample Size   =256000
  Walker distribution on root = 0 1 
  Using Locality Approximation
===== Memory Usage after the buffer registration =====
Available memory on node 0, free + buffers : 84686 MB
Memory footprint by rank 0 on node 0       : 75 MB
==================================================
====================================================
  SimpleFixedNodeBranch::finalize after a VMC block
    QMC counter        = 2
    time step          = 0.15
    reference energy   = -3.71744
    reference variance = 0.056679
====================================================
  Execution time = 1.2261e+00
</vmc>
<opt stage="setup">
  <log>
   Reading configurations from h5FileRoot Si.log.s002
  QMCCostFunction is created with 1 threads.
  Using Nonlocal PP in Opt: NonLocalECP
   Number of samples loaded to each thread : 250 
  VMC Eavg = -3.7269e+00
  VMC Evar = 4.7225e-02
  Total weights = 2.5600e+05
  Execution time = 1.0066e-01
  </log>
</opt>
<opt stage="main" walkers="256000">
  <log>

*****************************************
Building overlap and Hamiltonian matrices
*****************************************

Among totally 30 optimized parameters, largest LM parameter change : 2.5961e-01 at parameter 10

******************************************************************************
Init Cost =   4.7225e-02    New Cost =   3.3674e-02  Delta Cost =  -1.3551e-02
******************************************************************************

The new set of parameters is valid. Updating the trial wave function!

*****************************************************************************
Applying the update for shift_i =   1.0000e-02     and shift_s =   6.2500e-02
*****************************************************************************
  Execution time = 1.5172e+00
  </log>
  <optVariables href="Si.log.s002.opt.xml">
uu_0 1.7707e-01 1 1  ON 0
uu_1 2.8222e-01 1 1  ON 1
uu_2 1.3779e-01 1 1  ON 2
uu_3 4.9053e-02 1 1  ON 3
uu_4 -2.1291e-02 1 1  ON 4
uu_5 -6.8411e-02 1 1  ON 5
uu_6 -9.6690e-02 1 1  ON 6
uu_7 -1.0554e-01 1 1  ON 7
uu_8 -9.2296e-02 1 1  ON 8
uu_9 -6.9464e-02 1 1  ON 9
ud_0 6.2325e-01 1 1  ON 10
ud_1 3.9068e-01 1 1  ON 11
ud_2 1.4980e-01 1 1  ON 12
ud_3 4.7464e-03 1 1  ON 13
ud_4 -9.4169e-02 1 1  ON 14
ud_5 -1.5476e-01 1 1  ON 15
ud_6 -1.8733e-01 1 1  ON 16
ud_7 -1.9363e-01 1 1  ON 17
ud_8 -1.6917e-01 1 1  ON 18
ud_9 -1.3064e-01 1 1  ON 19
eSi_0 -3.0719e-01 1 1  ON 20
eSi_1 -3.1622e-01 1 1  ON 21
eSi_2 -1.8193e-01 1 1  ON 22
eSi_3 -3.0399e-02 1 1  ON 23
eSi_4 1.0787e-01 1 1  ON 24
eSi_5 1.9423e-01 1 1  ON 25
eSi_6 2.2313e-01 1 1  ON 26
eSi_7 1.8798e-01 1 1  ON 27
eSi_8 1.0586e-01 1 1  ON 28
eSi_9 2.5628e-02 1 1  ON 29
  </optVariables>
   Restore the number of walkers to 1, removing 0 walkers.
</opt>
</optimization-report>
  QMC Execution time = 1.5260e+00 secs 
  Reusing QMCFixedSampleLinearOptimize
 Using QMCCostFunction::QMCCostFunction

=========================================================
  Start QMCFixedSampleLinearOptimize
  File Root Si.log.s003 append = no 
=========================================================
  Skip QMCDriver::putQMCInfo 
  Resetting Properties of the walkers 1 x 13

=========================================================
  Start VMC
  File Root Si.log.s003 append = no 
=========================================================
Using existing walkers 
  Resetting Properties of the walkers 1 x 13

<vmc function="put">
  qmc_counter=2  my_counter=2
  time step      = 1.5000e-01
  blocks         = 200
  steps          = 2
  substeps       = 5
  current        = 0
  target samples = 2.5600e+05
  walkers/mpi    = 1

  stepsbetweensamples = 1
<parameter name="blocks" condition="int">200</parameter>
<parameter name="blocks_between_recompute" condition="int">0</parameter>
<parameter name="check_properties" condition="int">100</parameter>
<parameter name="checkproperties" condition="int">100</parameter>
<parameter name="current" condition="int">0</parameter>
<parameter name="dmcwalkersperthread" condition="real">2.5000e+02</parameter>
<parameter name="maxcpusecs" condition="real">3.6000e+05</parameter>
<parameter name="record_configs" condition="int">0</parameter>
<parameter name="record_walkers" condition="int">1</parameter>
<parameter name="recordconfigs" condition="int">0</parameter>
<parameter name="recordwalkers" condition="int">1</parameter>
<parameter name="rewind" condition="int">0</parameter>
<parameter name="samples" condition="real">2.5600e+05</parameter>
<parameter name="samplesperthread" condition="real">2.5000e+02</parameter>
<parameter name="steps" condition="int">2</parameter>
<parameter name="stepsbetweensamples" condition="int">1</parameter>
<parameter name="store_configs" condition="int">0</parameter>
<parameter name="storeconfigs" condition="int">0</parameter>
<parameter name="sub_steps" condition="int">5</parameter>
<parameter name="substeps" condition="int">5</parameter>
<parameter name="tau" condition="au">1.5000e-01</parameter>
<parameter name="time_step" condition="au">1.5000e-01</parameter>
<parameter name="timestep" condition="au">1.5000e-01</parameter>
<parameter name="use_drift" condition="string">no</parameter>
<parameter name="usedrift" condition="string">no</parameter>
<parameter name="walkers" condition="int">1</parameter>
<parameter name="warmup_steps" condition="int">0</parameter>
<parameter name="warmupsteps" condition="int">0</parameter>
  DumpConfig==false Nothing (configurations, state) will be saved.
  Walker Samples are dumped every 1 steps.
</vmc>
  EstimatorManagerBase::add replace LocalEnergy estimator.
  EstimatorManagerBase::add replace LocalEnergy estimator.
<optimization-report>
<vmc stage="main" blocks="200">
  Cannot make clones again. Use existing 1 clones
  Initial partition of walkers 0 1 
  Using Particle by Particle moves
  Walker moves without drift
  Total Sample Size   =256000
  Walker distribution on root = 0 1 
  Using Locality Approximation
===== Memory Usage after the buffer registration =====
Available memory on node 0, free + buffers : 84684 MB
Memory footprint by rank 0 on node 0       : 77 MB
==================================================
====================================================
  SimpleFixedNodeBranch::finalize after a VMC block
    QMC counter        = 3
    time step          = 0.15
    reference energy   = -3.743
    reference variance = 0.027019
====================================================
  Execution time = 1.5692e+00
</vmc>
<opt stage="setup">
  <log>
   Reading configurations from h5FileRoot Si.log.s003
  QMCCostFunction is created with 1 threads.
  Using Nonlocal PP in Opt: NonLocalECP
   Number of samples loaded to each thread : 250 
  VMC Eavg = -3.7441e+00
  VMC Evar = 2.9806e-02
  Total weights = 2.5600e+05
  Execution time = 1.8522e-01
  </log>
</opt>
<opt stage="main" walkers="256000">
  <log>

*****************************************
Building overlap and Hamiltonian matrices
*****************************************

Among totally 30 optimized parameters, largest LM parameter change : 1.3966e-01 at parameter 10

******************************************************************************
Init Cost =   2.9806e-02    New Cost =   2.9413e-02  Delta Cost =  -3.9327e-04
******************************************************************************

The new set of parameters is valid. Updating the trial wave function!

*****************************************************************************
Applying the update for shift_i =   1.0000e-02     and shift_s =   1.5625e-02
*****************************************************************************
  Execution time = 2.0157e+00
  </log>
  <optVariables href="Si.log.s003.opt.xml">
uu_0 2.5611e-01 1 1  ON 0
uu_1 3.4673e-01 1 1  ON 1
uu_2 1.7725e-01 1 1  ON 2
uu_3 7.1710e-02 1 1  ON 3
uu_4 -1.4760e-02 1 1  ON 4
uu_5 -7.6230e-02 1 1  ON 5
uu_6 -1.1668e-01 1 1  ON 6
uu_7 -1.3395e-01 1 1  ON 7
uu_8 -1.2374e-01 1 1  ON 8
uu_9 -9.7038e-02 1 1  ON 9
ud_0 7.6291e-01 1 1  ON 10
ud_1 4.7260e-01 1 1  ON 11
ud_2 2.0484e-01 1 1  ON 12
ud_3 3.3213e-02 1 1  ON 13
ud_4 -8.7613e-02 1 1  ON 14
ud_5 -1.6926e-01 1 1  ON 15
ud_6 -2.1891e-01 1 1  ON 16
ud_7 -2.3939e-01 1 1  ON 17
ud_8 -2.1930e-01 1 1  ON 18
ud_9 -1.7565e-01 1 1  ON 19
eSi_0 -4.3304e-01 1 1  ON 20
eSi_1 -4.1339e-01 1 1  ON 21
eSi_2 -2.5000e-01 1 1  ON 22
eSi_3 -5.8404e-02 1 1  ON 23
eSi_4 1.1995e-01 1 1  ON 24
eSi_5 2.4474e-01 1 1  ON 25
eSi_6 3.0168e-01 1 1  ON 26
eSi_7 2.7483e-01 1 1  ON 27
eSi_8 1.6838e-01 1 1  ON 28
eSi_9 5.1706e-02 1 1  ON 29
  </optVariables>
   Restore the number of walkers to 1, removing 0 walkers.
</opt>
</optimization-report>
  QMC Execution time = 2.0245e+00 secs 
  Reusing QMCFixedSampleLinearOptimize
 Using QMCCostFunction::QMCCostFunction

=========================================================
  Start QMCFixedSampleLinearOptimize
  File Root Si.log.s004 append = no 
=========================================================
  Skip QMCDriver::putQMCInfo 
  Resetting Properties of the walkers 1 x 13

=========================================================
  Start VMC
  File Root Si.log.s004 append = no 
=========================================================
Using existing walkers 
  Resetting Properties of the walkers 1 x 13

<vmc function="put">
  qmc_counter=3  my_counter=3
  time step      = 1.5000e-01
  blocks         = 200
  steps          = 2
  substeps       = 5
  current        = 0
  target samples = 2.5600e+05
  walkers/mpi    = 1

  stepsbetweensamples = 1
<parameter name="blocks" condition="int">200</parameter>
<parameter name="blocks_between_recompute" condition="int">0</parameter>
<parameter name="check_properties" condition="int">100</parameter>
<parameter name="checkproperties" condition="int">100</parameter>
<parameter name="current" condition="int">0</parameter>
<parameter name="dmcwalkersperthread" condition="real">2.5000e+02</parameter>
<parameter name="maxcpusecs" condition="real">3.6000e+05</parameter>
<parameter name="record_configs" condition="int">0</parameter>
<parameter name="record_walkers" condition="int">1</parameter>
<parameter name="recordconfigs" condition="int">0</parameter>
<parameter name="recordwalkers" condition="int">1</parameter>
<parameter name="rewind" condition="int">0</parameter>
<parameter name="samples" condition="real">2.5600e+05</parameter>
<parameter name="samplesperthread" condition="real">2.5000e+02</parameter>
<parameter name="steps" condition="int">2</parameter>
<parameter name="stepsbetweensamples" condition="int">1</parameter>
<parameter name="store_configs" condition="int">0</parameter>
<parameter name="storeconfigs" condition="int">0</parameter>
<parameter name="sub_steps" condition="int">5</parameter>
<parameter name="substeps" condition="int">5</parameter>
<parameter name="tau" condition="au">1.5000e-01</parameter>
<parameter name="time_step" condition="au">1.5000e-01</parameter>
<parameter name="timestep" condition="au">1.5000e-01</parameter>
<parameter name="use_drift" condition="string">no</parameter>
<parameter name="usedrift" condition="string">no</parameter>
<parameter name="walkers" condition="int">1</parameter>
<parameter name="warmup_steps" condition="int">0</parameter>
<parameter name="warmupsteps" condition="int">0</parameter>
  DumpConfig==false Nothing (configurations, state) will be saved.
  Walker Samples are dumped every 1 steps.
</vmc>
  EstimatorManagerBase::add replace LocalEnergy estimator.
  EstimatorManagerBase::add replace LocalEnergy estimator.
<optimization-report>
<vmc stage="main" blocks="200">
  Cannot make clones again. Use existing 1 clones
  Initial partition of walkers 0 1 
  Using Particle by Particle moves
  Walker moves without drift
  Total Sample Size   =256000
  Walker distribution on root = 0 1 
  Using Locality Approximation
===== Memory Usage after the buffer registration =====
Available memory on node 0, free + buffers : 84682 MB
Memory footprint by rank 0 on node 0       : 79 MB
==================================================
====================================================
  SimpleFixedNodeBranch::finalize after a VMC block
    QMC counter        = 4
    time step          = 0.15
    reference energy   = -3.76015
    reference variance = 0.027638
====================================================
  Execution time = 1.6360e+00
</vmc>
<opt stage="setup">
  <log>
   Reading configurations from h5FileRoot Si.log.s004
  QMCCostFunction is created with 1 threads.
  Using Nonlocal PP in Opt: NonLocalECP
   Number of samples loaded to each thread : 250 
  VMC Eavg = -3.7487e+00
  VMC Evar = 2.8943e-02
  Total weights = 2.5600e+05
  Execution time = 2.5588e-01
  </log>
</opt>
<opt stage="main" walkers="256000">
  <log>

*****************************************
Building overlap and Hamiltonian matrices
*****************************************

Among totally 30 optimized parameters, largest LM parameter change : 8.3835e-02 at parameter 20

******************************************************************************
Init Cost =   2.8943e-02    New Cost =   2.8893e-02  Delta Cost =  -5.0103e-05
******************************************************************************

The new set of parameters is valid. Updating the trial wave function!

*****************************************************************************
Applying the update for shift_i =   1.0000e-02     and shift_s =   3.9062e-03
*****************************************************************************
  Execution time = 2.2040e+00
  </log>
  <optVariables href="Si.log.s004.opt.xml">
uu_0 3.1784e-01 1 1  ON 0
uu_1 3.8001e-01 1 1  ON 1
uu_2 2.0315e-01 1 1  ON 2
uu_3 9.1116e-02 1 1  ON 3
uu_4 -1.7153e-03 1 1  ON 4
uu_5 -6.9676e-02 1 1  ON 5
uu_6 -1.1640e-01 1 1  ON 6
uu_7 -1.4054e-01 1 1  ON 7
uu_8 -1.3462e-01 1 1  ON 8
uu_9 -1.1125e-01 1 1  ON 9
ud_0 8.4013e-01 1 1  ON 10
ud_1 5.1519e-01 1 1  ON 11
ud_2 2.4089e-01 1 1  ON 12
ud_3 5.9441e-02 1 1  ON 13
ud_4 -6.9342e-02 1 1  ON 14
ud_5 -1.6009e-01 1 1  ON 15
ud_6 -2.1910e-01 1 1  ON 16
ud_7 -2.4924e-01 1 1  ON 17
ud_8 -2.3943e-01 1 1  ON 18
ud_9 -2.0527e-01 1 1  ON 19
eSi_0 -5.1687e-01 1 1  ON 20
eSi_1 -4.6988e-01 1 1  ON 21
eSi_2 -2.9544e-01 1 1  ON 22
eSi_3 -8.5542e-02 1 1  ON 23
eSi_4 1.1182e-01 1 1  ON 24
eSi_5 2.5956e-01 1 1  ON 25
eSi_6 3.4158e-01 1 1  ON 26
eSi_7 3.3872e-01 1 1  ON 27
eSi_8 2.3160e-01 1 1  ON 28
eSi_9 8.3520e-02 1 1  ON 29
  </optVariables>
   Restore the number of walkers to 1, removing 0 walkers.
</opt>
</optimization-report>
  QMC Execution time = 2.2127e+00 secs 
  Reusing QMCFixedSampleLinearOptimize
 Using QMCCostFunction::QMCCostFunction

=========================================================
  Start QMCFixedSampleLinearOptimize
  File Root Si.log.s005 append = no 
=========================================================
  Skip QMCDriver::putQMCInfo 
  Resetting Properties of the walkers 1 x 13

=========================================================
  Start VMC
  File Root Si.log.s005 append = no 
=========================================================
Using existing walkers 
  Resetting Properties of the walkers 1 x 13

<vmc function="put">
  qmc_counter=4  my_counter=4
  time step      = 1.5000e-01
  blocks         = 200
  steps          = 2
  substeps       = 5
  current        = 0
  target samples = 2.5600e+05
  walkers/mpi    = 1

  stepsbetweensamples = 1
<parameter name="blocks" condition="int">200</parameter>
<parameter name="blocks_between_recompute" condition="int">0</parameter>
<parameter name="check_properties" condition="int">100</parameter>
<parameter name="checkproperties" condition="int">100</parameter>
<parameter name="current" condition="int">0</parameter>
<parameter name="dmcwalkersperthread" condition="real">2.5000e+02</parameter>
<parameter name="maxcpusecs" condition="real">3.6000e+05</parameter>
<parameter name="record_configs" condition="int">0</parameter>
<parameter name="record_walkers" condition="int">1</parameter>
<parameter name="recordconfigs" condition="int">0</parameter>
<parameter name="recordwalkers" condition="int">1</parameter>
<parameter name="rewind" condition="int">0</parameter>
<parameter name="samples" condition="real">2.5600e+05</parameter>
<parameter name="samplesperthread" condition="real">2.5000e+02</parameter>
<parameter name="steps" condition="int">2</parameter>
<parameter name="stepsbetweensamples" condition="int">1</parameter>
<parameter name="store_configs" condition="int">0</parameter>
<parameter name="storeconfigs" condition="int">0</parameter>
<parameter name="sub_steps" condition="int">5</parameter>
<parameter name="substeps" condition="int">5</parameter>
<parameter name="tau" condition="au">1.5000e-01</parameter>
<parameter name="time_step" condition="au">1.5000e-01</parameter>
<parameter name="timestep" condition="au">1.5000e-01</parameter>
<parameter name="use_drift" condition="string">no</parameter>
<parameter name="usedrift" condition="string">no</parameter>
<parameter name="walkers" condition="int">1</parameter>
<parameter name="warmup_steps" condition="int">0</parameter>
<parameter name="warmupsteps" condition="int">0</parameter>
  DumpConfig==false Nothing (configurations, state) will be saved.
  Walker Samples are dumped every 1 steps.
</vmc>
  EstimatorManagerBase::add replace LocalEnergy estimator.
  EstimatorManagerBase::add replace LocalEnergy estimator.
<optimization-report>
<vmc stage="main" blocks="200">
  Cannot make clones again. Use existing 1 clones
  Initial partition of walkers 0 1 
  Using Particle by Particle moves
  Walker moves without drift
  Total Sample Size   =256000
  Walker distribution on root = 0 1 
  Using Locality Approximation
===== Memory Usage after the buffer registration =====
Available memory on node 0, free + buffers : 84680 MB
Memory footprint by rank 0 on node 0       : 81 MB
==================================================
====================================================
  SimpleFixedNodeBranch::finalize after a VMC block
    QMC counter        = 5
    time step          = 0.15
    reference energy   = -3.73992
    reference variance = 0.0317593
====================================================
  Execution time = 1.7773e+00
</vmc>
<opt stage="setup">
  <log>
   Reading configurations from h5FileRoot Si.log.s005
  QMCCostFunction is created with 1 threads.
  Using Nonlocal PP in Opt: NonLocalECP
   Number of samples loaded to each thread : 250 
  VMC Eavg = -3.7497e+00
  VMC Evar = 2.8327e-02
  Total weights = 2.5600e+05
  Execution time = 2.9257e-01
  </log>
</opt>
<opt stage="main" walkers="256000">
  <log>

*****************************************
Building overlap and Hamiltonian matrices
*****************************************

Among totally 30 optimized parameters, largest LM parameter change : 5.6038e-02 at parameter 0

******************************************************************************
Init Cost =   2.8327e-02    New Cost =   2.8200e-02  Delta Cost =  -1.2706e-04
******************************************************************************

The new set of parameters is valid. Updating the trial wave function!

*****************************************************************************
Applying the update for shift_i =   1.0000e-02     and shift_s =   3.9062e-03
*****************************************************************************
  Execution time = 2.3914e+00
  </log>
  <optVariables href="Si.log.s005.opt.xml">
uu_0 3.7388e-01 1 1  ON 0
uu_1 4.0514e-01 1 1  ON 1
uu_2 2.2431e-01 1 1  ON 2
uu_3 1.0844e-01 1 1  ON 3
uu_4 1.1615e-02 1 1  ON 4
uu_5 -6.0180e-02 1 1  ON 5
uu_6 -1.1196e-01 1 1  ON 6
uu_7 -1.4125e-01 1 1  ON 7
uu_8 -1.3913e-01 1 1  ON 8
uu_9 -1.2014e-01 1 1  ON 9
ud_0 8.8602e-01 1 1  ON 10
ud_1 5.4528e-01 1 1  ON 11
ud_2 2.7098e-01 1 1  ON 12
ud_3 8.4839e-02 1 1  ON 13
ud_4 -4.8109e-02 1 1  ON 14
ud_5 -1.4393e-01 1 1  ON 15
ud_6 -2.0847e-01 1 1  ON 16
ud_7 -2.4589e-01 1 1  ON 17
ud_8 -2.4270e-01 1 1  ON 18
ud_9 -2.1910e-01 1 1  ON 19
eSi_0 -5.6878e-01 1 1  ON 20
eSi_1 -5.0542e-01 1 1  ON 21
eSi_2 -3.2535e-01 1 1  ON 22
eSi_3 -1.0594e-01 1 1  ON 23
eSi_4 1.0277e-01 1 1  ON 24
eSi_5 2.6348e-01 1 1  ON 25
eSi_6 3.6080e-01 1 1  ON 26
eSi_7 3.7329e-01 1 1  ON 27
eSi_8 2.8138e-01 1 1  ON 28
eSi_9 1.1510e-01 1 1  ON 29
  </optVariables>
   Restore the number of walkers to 1, removing 0 walkers.
</opt>
</optimization-report>
  QMC Execution time = 2.3998e+00 secs 
Loop execution max-interations = 5
  Reusing QMCFixedSampleLinearOptimize
 Using QMCCostFunction::QMCCostFunction

=========================================================
  Start QMCFixedSampleLinearOptimize
  File Root Si.log.s006 append = no 
=========================================================
  Skip QMCDriver::putQMCInfo 
  Resetting Properties of the walkers 1 x 13

=========================================================
  Start VMC
  File Root Si.log.s006 append = no 
=========================================================
  Using the current 1 walkers.
  Total number of walkers: 1.0240e+03
  Total weight: 1.0240e+03
  Resetting Properties of the walkers 1 x 13

<vmc function="put">
  qmc_counter=0  my_counter=5
  time step      = 1.5000e-01
  blocks         = 200
  steps          = 2
  substeps       = 5
  current        = 0
  target samples = 2.5600e+05
  walkers/mpi    = 1

  stepsbetweensamples = 1
<parameter name="blocks" condition="int">200</parameter>
<parameter name="blocks_between_recompute" condition="int">0</parameter>
<parameter name="check_properties" condition="int">100</parameter>
<parameter name="checkproperties" condition="int">100</parameter>
<parameter name="current" condition="int">0</parameter>
<parameter name="dmcwalkersperthread" condition="real">2.5000e+02</parameter>
<parameter name="maxcpusecs" condition="real">3.6000e+05</parameter>
<parameter name="record_configs" condition="int">0</parameter>
<parameter name="record_walkers" condition="int">1</parameter>
<parameter name="recordconfigs" condition="int">0</parameter>
<parameter name="recordwalkers" condition="int">1</parameter>
<parameter name="rewind" condition="int">0</parameter>
<parameter name="samples" condition="real">2.5600e+05</parameter>
<parameter name="samplesperthread" condition="real">2.5000e+02</parameter>
<parameter name="steps" condition="int">2</parameter>
<parameter name="stepsbetweensamples" condition="int">1</parameter>
<parameter name="store_configs" condition="int">0</parameter>
<parameter name="storeconfigs" condition="int">0</parameter>
<parameter name="sub_steps" condition="int">5</parameter>
<parameter name="substeps" condition="int">5</parameter>
<parameter name="tau" condition="au">1.5000e-01</parameter>
<parameter name="time_step" condition="au">1.5000e-01</parameter>
<parameter name="timestep" condition="au">1.5000e-01</parameter>
<parameter name="use_drift" condition="string">no</parameter>
<parameter name="usedrift" condition="string">no</parameter>
<parameter name="walkers" condition="int">1</parameter>
<parameter name="warmup_steps" condition="int">0</parameter>
<parameter name="warmupsteps" condition="int">0</parameter>
  DumpConfig==false Nothing (configurations, state) will be saved.
  Walker Samples are dumped every 1 steps.
</vmc>
  EstimatorManagerBase::add replace LocalEnergy estimator.
  EstimatorManagerBase::add replace LocalEnergy estimator.
<optimization-report>
<vmc stage="main" blocks="200">
  Cannot make clones again. Use existing 1 clones
  Initial partition of walkers 0 1 
  Using Particle by Particle moves
  Walker moves without drift
  Total Sample Size   =256000
  Walker distribution on root = 0 1 
  Using Locality Approximation
===== Memory Usage after the buffer registration =====
Available memory on node 0, free + buffers : 84678 MB
Memory footprint by rank 0 on node 0       : 82 MB
==================================================
====================================================
  SimpleFixedNodeBranch::finalize after a VMC block
    QMC counter        = 6
    time step          = 0.15
    reference energy   = -3.75403
    reference variance = 0.0263649
====================================================
  Execution time = 1.8991e+00
</vmc>
<opt stage="setup">
  <log>
   Reading configurations from h5FileRoot Si.log.s006
  QMCCostFunction is created with 1 threads.
  Using Nonlocal PP in Opt: NonLocalECP
   Number of samples loaded to each thread : 250 
  VMC Eavg = -3.7501e+00
  VMC Evar = 2.8880e-02
  Total weights = 2.5600e+05
  Execution time = 3.2768e-01
  </log>
</opt>
<opt stage="main" walkers="256000">
  <log>

*****************************************
Building overlap and Hamiltonian matrices
*****************************************

Among totally 30 optimized parameters, largest LM parameter change : 4.8434e-02 at parameter 0

******************************************************************************
Init Cost =   2.8880e-02    New Cost =   2.8808e-02  Delta Cost =  -7.1875e-05
******************************************************************************

The new set of parameters is valid. Updating the trial wave function!

*****************************************************************************
Applying the update for shift_i =   1.0000e-02     and shift_s =   3.9062e-03
*****************************************************************************
  Execution time = 2.5816e+00
  </log>
  <optVariables href="Si.log.s006.opt.xml">
uu_0 4.2231e-01 1 1  ON 0
uu_1 4.2483e-01 1 1  ON 1
uu_2 2.4347e-01 1 1  ON 2
uu_3 1.2554e-01 1 1  ON 3
uu_4 2.7153e-02 1 1  ON 4
uu_5 -4.7588e-02 1 1  ON 5
uu_6 -1.0176e-01 1 1  ON 6
uu_7 -1.3480e-01 1 1  ON 7
uu_8 -1.3837e-01 1 1  ON 8
uu_9 -1.2410e-01 1 1  ON 9
ud_0 9.1759e-01 1 1  ON 10
ud_1 5.6954e-01 1 1  ON 11
ud_2 2.9392e-01 1 1  ON 12
ud_3 1.0536e-01 1 1  ON 13
ud_4 -2.9893e-02 1 1  ON 14
ud_5 -1.2844e-01 1 1  ON 15
ud_6 -1.9607e-01 1 1  ON 16
ud_7 -2.3839e-01 1 1  ON 17
ud_8 -2.4012e-01 1 1  ON 18
ud_9 -2.2362e-01 1 1  ON 19
eSi_0 -6.0554e-01 1 1  ON 20
eSi_1 -5.3562e-01 1 1  ON 21
eSi_2 -3.5183e-01 1 1  ON 22
eSi_3 -1.2559e-01 1 1  ON 23
eSi_4 9.1642e-02 1 1  ON 24
eSi_5 2.6258e-01 1 1  ON 25
eSi_6 3.7353e-01 1 1  ON 26
eSi_7 4.0314e-01 1 1  ON 27
eSi_8 3.2273e-01 1 1  ON 28
eSi_9 1.4544e-01 1 1  ON 29
  </optVariables>
   Restore the number of walkers to 1, removing 0 walkers.
</opt>
</optimization-report>
  QMC Execution time = 2.5907e+00 secs 
  Reusing QMCFixedSampleLinearOptimize
 Using QMCCostFunction::QMCCostFunction

=========================================================
  Start QMCFixedSampleLinearOptimize
  File Root Si.log.s007 append = no 
=========================================================
  Skip QMCDriver::putQMCInfo 
  Resetting Properties of the walkers 1 x 13

=========================================================
  Start VMC
  File Root Si.log.s007 append = no 
=========================================================
Using existing walkers 
  Resetting Properties of the walkers 1 x 13

<vmc function="put">
  qmc_counter=1  my_counter=6
  time step      = 1.5000e-01
  blocks         = 200
  steps          = 2
  substeps       = 5
  current        = 0
  target samples = 2.5600e+05
  walkers/mpi    = 1

  stepsbetweensamples = 1
<parameter name="blocks" condition="int">200</parameter>
<parameter name="blocks_between_recompute" condition="int">0</parameter>
<parameter name="check_properties" condition="int">100</parameter>
<parameter name="checkproperties" condition="int">100</parameter>
<parameter name="current" condition="int">0</parameter>
<parameter name="dmcwalkersperthread" condition="real">2.5000e+02</parameter>
<parameter name="maxcpusecs" condition="real">3.6000e+05</parameter>
<parameter name="record_configs" condition="int">0</parameter>
<parameter name="record_walkers" condition="int">1</parameter>
<parameter name="recordconfigs" condition="int">0</parameter>
<parameter name="recordwalkers" condition="int">1</parameter>
<parameter name="rewind" condition="int">0</parameter>
<parameter name="samples" condition="real">2.5600e+05</parameter>
<parameter name="samplesperthread" condition="real">2.5000e+02</parameter>
<parameter name="steps" condition="int">2</parameter>
<parameter name="stepsbetweensamples" condition="int">1</parameter>
<parameter name="store_configs" condition="int">0</parameter>
<parameter name="storeconfigs" condition="int">0</parameter>
<parameter name="sub_steps" condition="int">5</parameter>
<parameter name="substeps" condition="int">5</parameter>
<parameter name="tau" condition="au">1.5000e-01</parameter>
<parameter name="time_step" condition="au">1.5000e-01</parameter>
<parameter name="timestep" condition="au">1.5000e-01</parameter>
<parameter name="use_drift" condition="string">no</parameter>
<parameter name="usedrift" condition="string">no</parameter>
<parameter name="walkers" condition="int">1</parameter>
<parameter name="warmup_steps" condition="int">0</parameter>
<parameter name="warmupsteps" condition="int">0</parameter>
  DumpConfig==false Nothing (configurations, state) will be saved.
  Walker Samples are dumped every 1 steps.
</vmc>
  EstimatorManagerBase::add replace LocalEnergy estimator.
  EstimatorManagerBase::add replace LocalEnergy estimator.
<optimization-report>
<vmc stage="main" blocks="200">
  Cannot make clones again. Use existing 1 clones
  Initial partition of walkers 0 1 
  Using Particle by Particle moves
  Walker moves without drift
  Total Sample Size   =256000
  Walker distribution on root = 0 1 
  Using Locality Approximation
===== Memory Usage after the buffer registration =====
Available memory on node 0, free + buffers : 84676 MB
Memory footprint by rank 0 on node 0       : 84 MB
==================================================
====================================================
  SimpleFixedNodeBranch::finalize after a VMC block
    QMC counter        = 7
    time step          = 0.15
    reference energy   = -3.74251
    reference variance = 0.0273185
====================================================
  Execution time = 1.7429e+00
</vmc>
<opt stage="setup">
  <log>
   Reading configurations from h5FileRoot Si.log.s007
  QMCCostFunction is created with 1 threads.
  Using Nonlocal PP in Opt: NonLocalECP
   Number of samples loaded to each thread : 250 
  VMC Eavg = -3.7495e+00
  VMC Evar = 2.8018e-02
  Total weights = 2.5600e+05
  Execution time = 3.2490e-01
  </log>
</opt>
<opt stage="main" walkers="256000">
  <log>

*****************************************
Building overlap and Hamiltonian matrices
*****************************************

Among totally 30 optimized parameters, largest LM parameter change : 4.0473e-02 at parameter 0

******************************************************************************
Init Cost =   2.8018e-02    New Cost =   2.7911e-02  Delta Cost =  -1.0700e-04
******************************************************************************

The new set of parameters is valid. Updating the trial wave function!

*****************************************************************************
Applying the update for shift_i =   1.0000e-02     and shift_s =   3.9062e-03
*****************************************************************************
  Execution time = 2.4225e+00
  </log>
  <optVariables href="Si.log.s007.opt.xml">
uu_0 4.6278e-01 1 1  ON 0
uu_1 4.3977e-01 1 1  ON 1
uu_2 2.6046e-01 1 1  ON 2
uu_3 1.3913e-01 1 1  ON 3
uu_4 3.9176e-02 1 1  ON 4
uu_5 -3.7798e-02 1 1  ON 5
uu_6 -9.3968e-02 1 1  ON 6
uu_7 -1.2950e-01 1 1  ON 7
uu_8 -1.3591e-01 1 1  ON 8
uu_9 -1.2359e-01 1 1  ON 9
ud_0 9.4465e-01 1 1  ON 10
ud_1 5.9031e-01 1 1  ON 11
ud_2 3.1395e-01 1 1  ON 12
ud_3 1.2340e-01 1 1  ON 13
ud_4 -1.3744e-02 1 1  ON 14
ud_5 -1.1489e-01 1 1  ON 15
ud_6 -1.8541e-01 1 1  ON 16
ud_7 -2.3068e-01 1 1  ON 17
ud_8 -2.3450e-01 1 1  ON 18
ud_9 -2.2011e-01 1 1  ON 19
eSi_0 -6.3527e-01 1 1  ON 20
eSi_1 -5.6008e-01 1 1  ON 21
eSi_2 -3.7443e-01 1 1  ON 22
eSi_3 -1.4271e-01 1 1  ON 23
eSi_4 7.8947e-02 1 1  ON 24
eSi_5 2.5664e-01 1 1  ON 25
eSi_6 3.7742e-01 1 1  ON 26
eSi_7 4.2191e-01 1 1  ON 27
eSi_8 3.5700e-01 1 1  ON 28
eSi_9 1.8020e-01 1 1  ON 29
  </optVariables>
   Restore the number of walkers to 1, removing 0 walkers.
</opt>
</optimization-report>
  QMC Execution time = 2.4313e+00 secs 
  Reusing QMCFixedSampleLinearOptimize
 Using QMCCostFunction::QMCCostFunction

=========================================================
  Start QMCFixedSampleLinearOptimize
  File Root Si.log.s008 append = no 
=========================================================
  Skip QMCDriver::putQMCInfo 
  Resetting Properties of the walkers 1 x 13

=========================================================
  Start VMC
  File Root Si.log.s008 append = no 
=========================================================
Using existing walkers 
  Resetting Properties of the walkers 1 x 13

<vmc function="put">
  qmc_counter=2  my_counter=7
  time step      = 1.5000e-01
  blocks         = 200
  steps          = 2
  substeps       = 5
  current        = 0
  target samples = 2.5600e+05
  walkers/mpi    = 1

  stepsbetweensamples = 1
<parameter name="blocks" condition="int">200</parameter>
<parameter name="blocks_between_recompute" condition="int">0</parameter>
<parameter name="check_properties" condition="int">100</parameter>
<parameter name="checkproperties" condition="int">100</parameter>
<parameter name="current" condition="int">0</parameter>
<parameter name="dmcwalkersperthread" condition="real">2.5000e+02</parameter>
<parameter name="maxcpusecs" condition="real">3.6000e+05</parameter>
<parameter name="record_configs" condition="int">0</parameter>
<parameter name="record_walkers" condition="int">1</parameter>
<parameter name="recordconfigs" condition="int">0</parameter>
<parameter name="recordwalkers" condition="int">1</parameter>
<parameter name="rewind" condition="int">0</parameter>
<parameter name="samples" condition="real">2.5600e+05</parameter>
<parameter name="samplesperthread" condition="real">2.5000e+02</parameter>
<parameter name="steps" condition="int">2</parameter>
<parameter name="stepsbetweensamples" condition="int">1</parameter>
<parameter name="store_configs" condition="int">0</parameter>
<parameter name="storeconfigs" condition="int">0</parameter>
<parameter name="sub_steps" condition="int">5</parameter>
<parameter name="substeps" condition="int">5</parameter>
<parameter name="tau" condition="au">1.5000e-01</parameter>
<parameter name="time_step" condition="au">1.5000e-01</parameter>
<parameter name="timestep" condition="au">1.5000e-01</parameter>
<parameter name="use_drift" condition="string">no</parameter>
<parameter name="usedrift" condition="string">no</parameter>
<parameter name="walkers" condition="int">1</parameter>
<parameter name="warmup_steps" condition="int">0</parameter>
<parameter name="warmupsteps" condition="int">0</parameter>
  DumpConfig==false Nothing (configurations, state) will be saved.
  Walker Samples are dumped every 1 steps.
</vmc>
  EstimatorManagerBase::add replace LocalEnergy estimator.
  EstimatorManagerBase::add replace LocalEnergy estimator.
<optimization-report>
<vmc stage="main" blocks="200">
  Cannot make clones again. Use existing 1 clones
  Initial partition of walkers 0 1 
  Using Particle by Particle moves
  Walker moves without drift
  Total Sample Size   =256000
  Walker distribution on root = 0 1 
  Using Locality Approximation
===== Memory Usage after the buffer registration =====
Available memory on node 0, free + buffers : 84674 MB
Memory footprint by rank 0 on node 0       : 86 MB
==================================================
====================================================
  SimpleFixedNodeBranch::finalize after a VMC block
    QMC counter        = 8
    time step          = 0.15
    reference energy   = -3.74999
    reference variance = 0.0304715
====================================================
  Execution time = 1.7708e+00
</vmc>
<opt stage="setup">
  <log>
   Reading configurations from h5FileRoot Si.log.s008
  QMCCostFunction is created with 1 threads.
  Using Nonlocal PP in Opt: NonLocalECP
   Number of samples loaded to each thread : 250 
  VMC Eavg = -3.7503e+00
  VMC Evar = 2.8346e-02
  Total weights = 2.5600e+05
  Execution time = 3.5421e-01
  </log>
</opt>
<opt stage="main" walkers="256000">
  <log>

*****************************************
Building overlap and Hamiltonian matrices
*****************************************

Among totally 30 optimized parameters, largest LM parameter change : 3.8418e-02 at parameter 0

******************************************************************************
Init Cost =   2.8346e-02    New Cost =   2.8204e-02  Delta Cost =  -1.4284e-04
******************************************************************************

The new set of parameters is valid. Updating the trial wave function!

*****************************************************************************
Applying the update for shift_i =   1.0000e-02     and shift_s =   3.9062e-03
*****************************************************************************
  Execution time = 2.4801e+00
  </log>
  <optVariables href="Si.log.s008.opt.xml">
uu_0 5.0120e-01 1 1  ON 0
uu_1 4.5710e-01 1 1  ON 1
uu_2 2.7778e-01 1 1  ON 2
uu_3 1.5472e-01 1 1  ON 3
uu_4 5.3753e-02 1 1  ON 4
uu_5 -2.4683e-02 1 1  ON 5
uu_6 -8.2876e-02 1 1  ON 6
uu_7 -1.1985e-01 1 1  ON 7
uu_8 -1.2919e-01 1 1  ON 8
uu_9 -1.2205e-01 1 1  ON 9
ud_0 9.6873e-01 1 1  ON 10
ud_1 6.1024e-01 1 1  ON 11
ud_2 3.3302e-01 1 1  ON 12
ud_3 1.4164e-01 1 1  ON 13
ud_4 3.4052e-03 1 1  ON 14
ud_5 -9.8902e-02 1 1  ON 15
ud_6 -1.7068e-01 1 1  ON 16
ud_7 -2.1851e-01 1 1  ON 17
ud_8 -2.2627e-01 1 1  ON 18
ud_9 -2.1729e-01 1 1  ON 19
eSi_0 -6.5818e-01 1 1  ON 20
eSi_1 -5.7743e-01 1 1  ON 21
eSi_2 -3.8977e-01 1 1  ON 22
eSi_3 -1.5555e-01 1 1  ON 23
eSi_4 7.0026e-02 1 1  ON 24
eSi_5 2.5147e-01 1 1  ON 25
eSi_6 3.7746e-01 1 1  ON 26
eSi_7 4.3148e-01 1 1  ON 27
eSi_8 3.7658e-01 1 1  ON 28
eSi_9 2.0987e-01 1 1  ON 29
  </optVariables>
   Restore the number of walkers to 1, removing 0 walkers.
</opt>
</optimization-report>
  QMC Execution time = 2.4891e+00 secs 
  Reusing QMCFixedSampleLinearOptimize
 Using QMCCostFunction::QMCCostFunction

=========================================================
  Start QMCFixedSampleLinearOptimize
  File Root Si.log.s009 append = no 
=========================================================
  Skip QMCDriver::putQMCInfo 
  Resetting Properties of the walkers 1 x 13

=========================================================
  Start VMC
  File Root Si.log.s009 append = no 
=========================================================
Using existing walkers 
  Resetting Properties of the walkers 1 x 13

<vmc function="put">
  qmc_counter=3  my_counter=8
  time step      = 1.5000e-01
  blocks         = 200
  steps          = 2
  substeps       = 5
  current        = 0
  target samples = 2.5600e+05
  walkers/mpi    = 1

  stepsbetweensamples = 1
<parameter name="blocks" condition="int">200</parameter>
<parameter name="blocks_between_recompute" condition="int">0</parameter>
<parameter name="check_properties" condition="int">100</parameter>
<parameter name="checkproperties" condition="int">100</parameter>
<parameter name="current" condition="int">0</parameter>
<parameter name="dmcwalkersperthread" condition="real">2.5000e+02</parameter>
<parameter name="maxcpusecs" condition="real">3.6000e+05</parameter>
<parameter name="record_configs" condition="int">0</parameter>
<parameter name="record_walkers" condition="int">1</parameter>
<parameter name="recordconfigs" condition="int">0</parameter>
<parameter name="recordwalkers" condition="int">1</parameter>
<parameter name="rewind" condition="int">0</parameter>
<parameter name="samples" condition="real">2.5600e+05</parameter>
<parameter name="samplesperthread" condition="real">2.5000e+02</parameter>
<parameter name="steps" condition="int">2</parameter>
<parameter name="stepsbetweensamples" condition="int">1</parameter>
<parameter name="store_configs" condition="int">0</parameter>
<parameter name="storeconfigs" condition="int">0</parameter>
<parameter name="sub_steps" condition="int">5</parameter>
<parameter name="substeps" condition="int">5</parameter>
<parameter name="tau" condition="au">1.5000e-01</parameter>
<parameter name="time_step" condition="au">1.5000e-01</parameter>
<parameter name="timestep" condition="au">1.5000e-01</parameter>
<parameter name="use_drift" condition="string">no</parameter>
<parameter name="usedrift" condition="string">no</parameter>
<parameter name="walkers" condition="int">1</parameter>
<parameter name="warmup_steps" condition="int">0</parameter>
<parameter name="warmupsteps" condition="int">0</parameter>
  DumpConfig==false Nothing (configurations, state) will be saved.
  Walker Samples are dumped every 1 steps.
</vmc>
  EstimatorManagerBase::add replace LocalEnergy estimator.
  EstimatorManagerBase::add replace LocalEnergy estimator.
<optimization-report>
<vmc stage="main" blocks="200">
  Cannot make clones again. Use existing 1 clones
  Initial partition of walkers 0 1 
  Using Particle by Particle moves
  Walker moves without drift
  Total Sample Size   =256000
  Walker distribution on root = 0 1 
  Using Locality Approximation
===== Memory Usage after the buffer registration =====
Available memory on node 0, free + buffers : 84672 MB
Memory footprint by rank 0 on node 0       : 87 MB
==================================================
====================================================
  SimpleFixedNodeBranch::finalize after a VMC block
    QMC counter        = 9
    time step          = 0.15
    reference energy   = -3.74002
    reference variance = 0.02606
====================================================
  Execution time = 1.7652e+00
</vmc>
<opt stage="setup">
  <log>
   Reading configurations from h5FileRoot Si.log.s009
  QMCCostFunction is created with 1 threads.
  Using Nonlocal PP in Opt: NonLocalECP
   Number of samples loaded to each thread : 250 
  VMC Eavg = -3.7514e+00
  VMC Evar = 2.8125e-02
  Total weights = 2.5600e+05
  Execution time = 3.4351e-01
  </log>
</opt>
<opt stage="main" walkers="256000">
  <log>

*****************************************
Building overlap and Hamiltonian matrices
*****************************************

Among totally 30 optimized parameters, largest LM parameter change : 3.1049e-02 at parameter 0

******************************************************************************
Init Cost =   2.8125e-02    New Cost =   2.7721e-02  Delta Cost =  -4.0399e-04
******************************************************************************

The new set of parameters is valid. Updating the trial wave function!

*****************************************************************************
Applying the update for shift_i =   1.0000e-02     and shift_s =   3.9062e-03
*****************************************************************************
  Execution time = 2.4539e+00
  </log>
  <optVariables href="Si.log.s009.opt.xml">
uu_0 5.3225e-01 1 1  ON 0
uu_1 4.6929e-01 1 1  ON 1
uu_2 2.9211e-01 1 1  ON 2
uu_3 1.6787e-01 1 1  ON 3
uu_4 6.6043e-02 1 1  ON 4
uu_5 -1.3139e-02 1 1  ON 5
uu_6 -7.2232e-02 1 1  ON 6
uu_7 -1.1190e-01 1 1  ON 7
uu_8 -1.2276e-01 1 1  ON 8
uu_9 -1.1731e-01 1 1  ON 9
ud_0 9.8555e-01 1 1  ON 10
ud_1 6.2496e-01 1 1  ON 11
ud_2 3.4812e-01 1 1  ON 12
ud_3 1.5638e-01 1 1  ON 13
ud_4 1.8222e-02 1 1  ON 14
ud_5 -8.4460e-02 1 1  ON 15
ud_6 -1.5693e-01 1 1  ON 16
ud_7 -2.0467e-01 1 1  ON 17
ud_8 -2.1486e-01 1 1  ON 18
ud_9 -2.0819e-01 1 1  ON 19
eSi_0 -6.8215e-01 1 1  ON 20
eSi_1 -5.9413e-01 1 1  ON 21
eSi_2 -4.0426e-01 1 1  ON 22
eSi_3 -1.6824e-01 1 1  ON 23
eSi_4 6.0118e-02 1 1  ON 24
eSi_5 2.4736e-01 1 1  ON 25
eSi_6 3.7895e-01 1 1  ON 26
eSi_7 4.3949e-01 1 1  ON 27
eSi_8 3.9298e-01 1 1  ON 28
eSi_9 2.3622e-01 1 1  ON 29
  </optVariables>
   Restore the number of walkers to 1, removing 0 walkers.
</opt>
</optimization-report>
  QMC Execution time = 2.4625e+00 secs 
  Reusing QMCFixedSampleLinearOptimize
 Using QMCCostFunction::QMCCostFunction

=========================================================
  Start QMCFixedSampleLinearOptimize
  File Root Si.log.s010 append = no 
=========================================================
  Skip QMCDriver::putQMCInfo 
  Resetting Properties of the walkers 1 x 13

=========================================================
  Start VMC
  File Root Si.log.s010 append = no 
=========================================================
Using existing walkers 
  Resetting Properties of the walkers 1 x 13

<vmc function="put">
  qmc_counter=4  my_counter=9
  time step      = 1.5000e-01
  blocks         = 200
  steps          = 2
  substeps       = 5
  current        = 0
  target samples = 2.5600e+05
  walkers/mpi    = 1

  stepsbetweensamples = 1
<parameter name="blocks" condition="int">200</parameter>
<parameter name="blocks_between_recompute" condition="int">0</parameter>
<parameter name="check_properties" condition="int">100</parameter>
<parameter name="checkproperties" condition="int">100</parameter>
<parameter name="current" condition="int">0</parameter>
<parameter name="dmcwalkersperthread" condition="real">2.5000e+02</parameter>
<parameter name="maxcpusecs" condition="real">3.6000e+05</parameter>
<parameter name="record_configs" condition="int">0</parameter>
<parameter name="record_walkers" condition="int">1</parameter>
<parameter name="recordconfigs" condition="int">0</parameter>
<parameter name="recordwalkers" condition="int">1</parameter>
<parameter name="rewind" condition="int">0</parameter>
<parameter name="samples" condition="real">2.5600e+05</parameter>
<parameter name="samplesperthread" condition="real">2.5000e+02</parameter>
<parameter name="steps" condition="int">2</parameter>
<parameter name="stepsbetweensamples" condition="int">1</parameter>
<parameter name="store_configs" condition="int">0</parameter>
<parameter name="storeconfigs" condition="int">0</parameter>
<parameter name="sub_steps" condition="int">5</parameter>
<parameter name="substeps" condition="int">5</parameter>
<parameter name="tau" condition="au">1.5000e-01</parameter>
<parameter name="time_step" condition="au">1.5000e-01</parameter>
<parameter name="timestep" condition="au">1.5000e-01</parameter>
<parameter name="use_drift" condition="string">no</parameter>
<parameter name="usedrift" condition="string">no</parameter>
<parameter name="walkers" condition="int">1</parameter>
<parameter name="warmup_steps" condition="int">0</parameter>
<parameter name="warmupsteps" condition="int">0</parameter>
  DumpConfig==false Nothing (configurations, state) will be saved.
  Walker Samples are dumped every 1 steps.
</vmc>
  EstimatorManagerBase::add replace LocalEnergy estimator.
  EstimatorManagerBase::add replace LocalEnergy estimator.
<optimization-report>
<vmc stage="main" blocks="200">
  Cannot make clones again. Use existing 1 clones
  Initial partition of walkers 0 1 
  Using Particle by Particle moves
  Walker moves without drift
  Total Sample Size   =256000
  Walker distribution on root = 0 1 
  Using Locality Approximation
===== Memory Usage after the buffer registration =====
Available memory on node 0, free + buffers : 84670 MB
Memory footprint by rank 0 on node 0       : 89 MB
==================================================
====================================================
  SimpleFixedNodeBranch::finalize after a VMC block
    QMC counter        = 10
    time step          = 0.15
    reference energy   = -3.7547
    reference variance = 0.030894
====================================================
  Execution time = 2.1656e+00
</vmc>
<opt stage="setup">
  <log>
   Reading configurations from h5FileRoot Si.log.s010
  QMCCostFunction is created with 1 threads.
  Using Nonlocal PP in Opt: NonLocalECP
   Number of samples loaded to each thread : 250 
  VMC Eavg = -3.7510e+00
  VMC Evar = 2.7670e-02
  Total weights = 2.5600e+05
  Execution time = 3.4419e-01
  </log>
</opt>
<opt stage="main" walkers="256000">
  <log>

*****************************************
Building overlap and Hamiltonian matrices
*****************************************

Among totally 30 optimized parameters, largest LM parameter change : 2.9465e-02 at parameter 0

******************************************************************************
Init Cost =   2.7670e-02    New Cost =   2.7465e-02  Delta Cost =  -2.0496e-04
******************************************************************************

The new set of parameters is valid. Updating the trial wave function!

*****************************************************************************
Applying the update for shift_i =   1.0000e-02     and shift_s =   3.9062e-03
*****************************************************************************
  Execution time = 2.8637e+00
  </log>
  <optVariables href="Si.log.s010.opt.xml">
uu_0 5.6171e-01 1 1  ON 0
uu_1 4.8231e-01 1 1  ON 1
uu_2 3.0496e-01 1 1  ON 2
uu_3 1.8092e-01 1 1  ON 3
uu_4 7.8885e-02 1 1  ON 4
uu_5 -8.7315e-04 1 1  ON 5
uu_6 -6.1262e-02 1 1  ON 6
uu_7 -1.0145e-01 1 1  ON 7
uu_8 -1.1372e-01 1 1  ON 8
uu_9 -1.1145e-01 1 1  ON 9
ud_0 1.0050e+00 1 1  ON 10
ud_1 6.4345e-01 1 1  ON 11
ud_2 3.6736e-01 1 1  ON 12
ud_3 1.7474e-01 1 1  ON 13
ud_4 3.5561e-02 1 1  ON 14
ud_5 -6.8675e-02 1 1  ON 15
ud_6 -1.4341e-01 1 1  ON 16
ud_7 -1.9406e-01 1 1  ON 17
ud_8 -2.0665e-01 1 1  ON 18
ud_9 -2.0281e-01 1 1  ON 19
eSi_0 -6.9321e-01 1 1  ON 20
eSi_1 -6.0645e-01 1 1  ON 21
eSi_2 -4.1637e-01 1 1  ON 22
eSi_3 -1.7817e-01 1 1  ON 23
eSi_4 5.1868e-02 1 1  ON 24
eSi_5 2.4203e-01 1 1  ON 25
eSi_6 3.7669e-01 1 1  ON 26
eSi_7 4.4178e-01 1 1  ON 27
eSi_8 4.0229e-01 1 1  ON 28
eSi_9 2.5459e-01 1 1  ON 29
  </optVariables>
   Restore the number of walkers to 1, removing 0 walkers.
</opt>
</optimization-report>
  QMC Execution time = 2.8717e+00 secs 
Loop execution max-interations = 10
  Reusing QMCFixedSampleLinearOptimize
 Using QMCCostFunction::QMCCostFunction

=========================================================
  Start QMCFixedSampleLinearOptimize
  File Root Si.log.s011 append = no 
=========================================================
  Skip QMCDriver::putQMCInfo 
  Resetting Properties of the walkers 1 x 13

=========================================================
  Start VMC
  File Root Si.log.s011 append = no 
=========================================================
  Using the current 1 walkers.
  Total number of walkers: 1.0240e+03
  Total weight: 1.0240e+03
  Resetting Properties of the walkers 1 x 13

<vmc function="put">
  qmc_counter=0  my_counter=10
  time step      = 1.5000e-01
  blocks         = 200
  steps          = 3
  substeps       = 5
  current        = 0
  target samples = 5.1200e+05
  walkers/mpi    = 1

  stepsbetweensamples = 1
<parameter name="blocks" condition="int">200</parameter>
<parameter name="blocks_between_recompute" condition="int">0</parameter>
<parameter name="check_properties" condition="int">100</parameter>
<parameter name="checkproperties" condition="int">100</parameter>
<parameter name="current" condition="int">0</parameter>
<parameter name="dmcwalkersperthread" condition="real">5.0000e+02</parameter>
<parameter name="maxcpusecs" condition="real">3.6000e+05</parameter>
<parameter name="record_configs" condition="int">0</parameter>
<parameter name="record_walkers" condition="int">1</parameter>
<parameter name="recordconfigs" condition="int">0</parameter>
<parameter name="recordwalkers" condition="int">1</parameter>
<parameter name="rewind" condition="int">0</parameter>
<parameter name="samples" condition="real">5.1200e+05</parameter>
<parameter name="samplesperthread" condition="real">5.0000e+02</parameter>
<parameter name="steps" condition="int">3</parameter>
<parameter name="stepsbetweensamples" condition="int">1</parameter>
<parameter name="store_configs" condition="int">0</parameter>
<parameter name="storeconfigs" condition="int">0</parameter>
<parameter name="sub_steps" condition="int">5</parameter>
<parameter name="substeps" condition="int">5</parameter>
<parameter name="tau" condition="au">1.5000e-01</parameter>
<parameter name="time_step" condition="au">1.5000e-01</parameter>
<parameter name="timestep" condition="au">1.5000e-01</parameter>
<parameter name="use_drift" condition="string">no</parameter>
<parameter name="usedrift" condition="string">no</parameter>
<parameter name="walkers" condition="int">1</parameter>
<parameter name="warmup_steps" condition="int">0</parameter>
<parameter name="warmupsteps" condition="int">0</parameter>
  DumpConfig==false Nothing (configurations, state) will be saved.
  Walker Samples are dumped every 1 steps.
</vmc>
  EstimatorManagerBase::add replace LocalEnergy estimator.
  EstimatorManagerBase::add replace LocalEnergy estimator.
<optimization-report>
<vmc stage="main" blocks="200">
  Cannot make clones again. Use existing 1 clones
  Initial partition of walkers 0 1 
  Using Particle by Particle moves
  Walker moves without drift
  Total Sample Size   =512000
  Walker distribution on root = 0 1 
  Using Locality Approximation
===== Memory Usage after the buffer registration =====
Available memory on node 0, free + buffers : 84668 MB
Memory footprint by rank 0 on node 0       : 91 MB
==================================================
====================================================
  SimpleFixedNodeBranch::finalize after a VMC block
    QMC counter        = 11
    time step          = 0.15
    reference energy   = -3.74015
    reference variance = 0.034225
====================================================
  Execution time = 2.1855e+00
</vmc>
<opt stage="setup">
  <log>
   Reading configurations from h5FileRoot Si.log.s011
  QMCCostFunction is created with 1 threads.
  Using Nonlocal PP in Opt: NonLocalECP
   Number of samples loaded to each thread : 500 
  VMC Eavg = -3.7511e+00
  VMC Evar = 2.7248e-02
  Total weights = 5.1200e+05
  Execution time = 6.8636e-01
  </log>
</opt>
<opt stage="main" walkers="512000">
  <log>

*****************************************
Building overlap and Hamiltonian matrices
*****************************************

Among totally 30 optimized parameters, largest LM parameter change : 2.4733e-02 at parameter 0

******************************************************************************
Init Cost =  -3.5622e+00    New Cost =  -3.5623e+00  Delta Cost =  -1.0144e-04
******************************************************************************

The new set of parameters is valid. Updating the trial wave function!

*****************************************************************************
Applying the update for shift_i =   1.0000e-02     and shift_s =   3.9062e-03
*****************************************************************************
  Execution time = 3.5875e+00
  </log>
  <optVariables href="Si.log.s011.opt.xml">
uu_0 5.8645e-01 1 1  ON 0
uu_1 4.9611e-01 1 1  ON 1
uu_2 3.1955e-01 1 1  ON 2
uu_3 1.9415e-01 1 1  ON 3
uu_4 9.1355e-02 1 1  ON 4
uu_5 1.0601e-02 1 1  ON 5
uu_6 -5.0566e-02 1 1  ON 6
uu_7 -9.2192e-02 1 1  ON 7
uu_8 -1.0750e-01 1 1  ON 8
uu_9 -1.0644e-01 1 1  ON 9
ud_0 1.0219e+00 1 1  ON 10
ud_1 6.5997e-01 1 1  ON 11
ud_2 3.8249e-01 1 1  ON 12
ud_3 1.8964e-01 1 1  ON 13
ud_4 5.0112e-02 1 1  ON 14
ud_5 -5.4455e-02 1 1  ON 15
ud_6 -1.2967e-01 1 1  ON 16
ud_7 -1.8106e-01 1 1  ON 17
ud_8 -1.9524e-01 1 1  ON 18
ud_9 -1.9370e-01 1 1  ON 19
eSi_0 -7.0797e-01 1 1  ON 20
eSi_1 -6.2000e-01 1 1  ON 21
eSi_2 -4.2851e-01 1 1  ON 22
eSi_3 -1.8861e-01 1 1  ON 23
eSi_4 4.3277e-02 1 1  ON 24
eSi_5 2.3621e-01 1 1  ON 25
eSi_6 3.7560e-01 1 1  ON 26
eSi_7 4.4507e-01 1 1  ON 27
eSi_8 4.1343e-01 1 1  ON 28
eSi_9 2.7707e-01 1 1  ON 29
  </optVariables>
   Restore the number of walkers to 1, removing 0 walkers.
</opt>
</optimization-report>
  QMC Execution time = 3.5964e+00 secs 
  Reusing QMCFixedSampleLinearOptimize
 Using QMCCostFunction::QMCCostFunction

=========================================================
  Start QMCFixedSampleLinearOptimize
  File Root Si.log.s012 append = no 
=========================================================
  Skip QMCDriver::putQMCInfo 
  Resetting Properties of the walkers 1 x 13

=========================================================
  Start VMC
  File Root Si.log.s012 append = no 
=========================================================
Using existing walkers 
  Resetting Properties of the walkers 1 x 13

<vmc function="put">
  qmc_counter=1  my_counter=11
  time step      = 1.5000e-01
  blocks         = 200
  steps          = 3
  substeps       = 5
  current        = 0
  target samples = 5.1200e+05
  walkers/mpi    = 1

  stepsbetweensamples = 1
<parameter name="blocks" condition="int">200</parameter>
<parameter name="blocks_between_recompute" condition="int">0</parameter>
<parameter name="check_properties" condition="int">100</parameter>
<parameter name="checkproperties" condition="int">100</parameter>
<parameter name="current" condition="int">0</parameter>
<parameter name="dmcwalkersperthread" condition="real">5.0000e+02</parameter>
<parameter name="maxcpusecs" condition="real">3.6000e+05</parameter>
<parameter name="record_configs" condition="int">0</parameter>
<parameter name="record_walkers" condition="int">1</parameter>
<parameter name="recordconfigs" condition="int">0</parameter>
<parameter name="recordwalkers" condition="int">1</parameter>
<parameter name="rewind" condition="int">0</parameter>
<parameter name="samples" condition="real">5.1200e+05</parameter>
<parameter name="samplesperthread" condition="real">5.0000e+02</parameter>
<parameter name="steps" condition="int">3</parameter>
<parameter name="stepsbetweensamples" condition="int">1</parameter>
<parameter name="store_configs" condition="int">0</parameter>
<parameter name="storeconfigs" condition="int">0</parameter>
<parameter name="sub_steps" condition="int">5</parameter>
<parameter name="substeps" condition="int">5</parameter>
<parameter name="tau" condition="au">1.5000e-01</parameter>
<parameter name="time_step" condition="au">1.5000e-01</parameter>
<parameter name="timestep" condition="au">1.5000e-01</parameter>
<parameter name="use_drift" condition="string">no</parameter>
<parameter name="usedrift" condition="string">no</parameter>
<parameter name="walkers" condition="int">1</parameter>
<parameter name="warmup_steps" condition="int">0</parameter>
<parameter name="warmupsteps" condition="int">0</parameter>
  DumpConfig==false Nothing (configurations, state) will be saved.
  Walker Samples are dumped every 1 steps.
</vmc>
  EstimatorManagerBase::add replace LocalEnergy estimator.
  EstimatorManagerBase::add replace LocalEnergy estimator.
<optimization-report>
<vmc stage="main" blocks="200">
  Cannot make clones again. Use existing 1 clones
  Initial partition of walkers 0 1 
  Using Particle by Particle moves
  Walker moves without drift
  Total Sample Size   =512000
  Walker distribution on root = 0 1 
  Using Locality Approximation
===== Memory Usage after the buffer registration =====
Available memory on node 0, free + buffers : 84653 MB
Memory footprint by rank 0 on node 0       : 93 MB
==================================================
====================================================
[...]
</vmc>
<opt stage="setup">
  <log>
   Reading configurations from h5FileRoot Si.log.s017
  QMCCostFunction is created with 1 threads.
  Using Nonlocal PP in Opt: NonLocalECP
   Number of samples loaded to each thread : 500 
  VMC Eavg = -3.7512e+00
  VMC Evar = 2.6386e-02
  Total weights = 5.1200e+05
  Execution time = 7.1674e-01
  </log>
</opt>
<opt stage="main" walkers="512000">
  <log>

*****************************************
Building overlap and Hamiltonian matrices
*****************************************

Among totally 30 optimized parameters, largest LM parameter change : 1.3608e-02 at parameter 0

******************************************************************************
Init Cost =  -3.5623e+00    New Cost =  -3.5624e+00  Delta Cost =  -5.5067e-05
******************************************************************************

The new set of parameters is valid. Updating the trial wave function!

*****************************************************************************
Applying the update for shift_i =   1.0000e-02     and shift_s =   3.9062e-03
*****************************************************************************
  Execution time = 3.6280e+00
  </log>
  <optVariables href="Si.log.s017.opt.xml">
uu_0 6.9919e-01 1 1  ON 0
uu_1 5.5377e-01 1 1  ON 1
uu_2 3.7959e-01 1 1  ON 2
uu_3 2.5137e-01 1 1  ON 3
uu_4 1.4679e-01 1 1  ON 4
uu_5 6.3015e-02 1 1  ON 5
uu_6 -1.7632e-03 1 1  ON 6
uu_7 -4.7869e-02 1 1  ON 7
uu_8 -6.9231e-02 1 1  ON 8
uu_9 -7.4923e-02 1 1  ON 9
ud_0 1.1022e+00 1 1  ON 10
ud_1 7.3931e-01 1 1  ON 11
ud_2 4.6140e-01 1 1  ON 12
ud_3 2.6704e-01 1 1  ON 13
ud_4 1.2560e-01 1 1  ON 14
ud_5 1.8247e-02 1 1  ON 15
ud_6 -6.0252e-02 1 1  ON 16
ud_7 -1.1649e-01 1 1  ON 17
ud_8 -1.3932e-01 1 1  ON 18
ud_9 -1.4497e-01 1 1  ON 19
eSi_0 -7.7040e-01 1 1  ON 20
eSi_1 -6.8186e-01 1 1  ON 21
eSi_2 -4.8712e-01 1 1  ON 22
eSi_3 -2.4148e-01 1 1  ON 23
eSi_4 -1.5540e-03 1 1  ON 24
eSi_5 2.0093e-01 1 1  ON 25
eSi_6 3.5227e-01 1 1  ON 26
eSi_7 4.4122e-01 1 1  ON 27
eSi_8 4.3655e-01 1 1  ON 28
eSi_9 3.5794e-01 1 1  ON 29
  </optVariables>
   Restore the number of walkers to 1, removing 0 walkers.
</opt>
</optimization-report>
  QMC Execution time = 4.0045e+00 secs 
  Reusing QMCFixedSampleLinearOptimize
 Using QMCCostFunction::QMCCostFunction

=========================================================
  Start QMCFixedSampleLinearOptimize
  File Root Si.log.s018 append = no 
=========================================================
  Skip QMCDriver::putQMCInfo 
  Resetting Properties of the walkers 1 x 13

=========================================================
  Start VMC
  File Root Si.log.s018 append = no 
=========================================================
Using existing walkers 
  Resetting Properties of the walkers 1 x 13

<vmc function="put">
  qmc_counter=7  my_counter=17
  time step      = 1.5000e-01
  blocks         = 200
  steps          = 3
  substeps       = 5
  current        = 0
  target samples = 5.1200e+05
  walkers/mpi    = 1

  stepsbetweensamples = 1
<parameter name="blocks" condition="int">200</parameter>
<parameter name="blocks_between_recompute" condition="int">0</parameter>
<parameter name="check_properties" condition="int">100</parameter>
<parameter name="checkproperties" condition="int">100</parameter>
<parameter name="current" condition="int">0</parameter>
<parameter name="dmcwalkersperthread" condition="real">5.0000e+02</parameter>
<parameter name="maxcpusecs" condition="real">3.6000e+05</parameter>
<parameter name="record_configs" condition="int">0</parameter>
<parameter name="record_walkers" condition="int">1</parameter>
<parameter name="recordconfigs" condition="int">0</parameter>
<parameter name="recordwalkers" condition="int">1</parameter>
<parameter name="rewind" condition="int">0</parameter>
<parameter name="samples" condition="real">5.1200e+05</parameter>
<parameter name="samplesperthread" condition="real">5.0000e+02</parameter>
<parameter name="steps" condition="int">3</parameter>
<parameter name="stepsbetweensamples" condition="int">1</parameter>
<parameter name="store_configs" condition="int">0</parameter>
<parameter name="storeconfigs" condition="int">0</parameter>
<parameter name="sub_steps" condition="int">5</parameter>
<parameter name="substeps" condition="int">5</parameter>
<parameter name="tau" condition="au">1.5000e-01</parameter>
<parameter name="time_step" condition="au">1.5000e-01</parameter>
<parameter name="timestep" condition="au">1.5000e-01</parameter>
<parameter name="use_drift" condition="string">no</parameter>
<parameter name="usedrift" condition="string">no</parameter>
<parameter name="walkers" condition="int">1</parameter>
<parameter name="warmup_steps" condition="int">0</parameter>
<parameter name="warmupsteps" condition="int">0</parameter>
  DumpConfig==false Nothing (configurations, state) will be saved.
  Walker Samples are dumped every 1 steps.
</vmc>
  EstimatorManagerBase::add replace LocalEnergy estimator.
  EstimatorManagerBase::add replace LocalEnergy estimator.
<optimization-report>
<vmc stage="main" blocks="200">
  Cannot make clones again. Use existing 1 clones
  Initial partition of walkers 0 1 
  Using Particle by Particle moves
  Walker moves without drift
  Total Sample Size   =512000
  Walker distribution on root = 0 1 
  Using Locality Approximation
===== Memory Usage after the buffer registration =====
Available memory on node 0, free + buffers : 84633 MB
Memory footprint by rank 0 on node 0       : 104 MB
==================================================
====================================================
  SimpleFixedNodeBranch::finalize after a VMC block
    QMC counter        = 18
    time step          = 0.15
    reference energy   = -3.74221
    reference variance = 0.0235659
====================================================
  Execution time = 2.1891e+00
</vmc>
<opt stage="setup">
  <log>
   Reading configurations from h5FileRoot Si.log.s018
  QMCCostFunction is created with 1 threads.
  Using Nonlocal PP in Opt: NonLocalECP
   Number of samples loaded to each thread : 500 
  VMC Eavg = -3.7516e+00
  VMC Evar = 2.6350e-02
  Total weights = 5.1200e+05
  Execution time = 7.0978e-01
  </log>
</opt>
<opt stage="main" walkers="512000">
  <log>

*****************************************
Building overlap and Hamiltonian matrices
*****************************************

Among totally 30 optimized parameters, largest LM parameter change : 1.2717e-02 at parameter 20

******************************************************************************
Init Cost =  -3.5627e+00    New Cost =  -3.5628e+00  Delta Cost =  -5.2569e-05
******************************************************************************

The new set of parameters is valid. Updating the trial wave function!

*****************************************************************************
Applying the update for shift_i =   1.0000e-02     and shift_s =   3.9062e-03
*****************************************************************************
  Execution time = 3.6216e+00
  </log>
  <optVariables href="Si.log.s018.opt.xml">
uu_0 7.1123e-01 1 1  ON 0
uu_1 5.5965e-01 1 1  ON 1
uu_2 3.8647e-01 1 1  ON 2
uu_3 2.5820e-01 1 1  ON 3
uu_4 1.5337e-01 1 1  ON 4
uu_5 6.9852e-02 1 1  ON 5
uu_6 5.2129e-03 1 1  ON 6
uu_7 -4.1730e-02 1 1  ON 7
uu_8 -6.4603e-02 1 1  ON 8
uu_9 -7.1366e-02 1 1  ON 9
ud_0 1.1131e+00 1 1  ON 10
ud_1 7.4863e-01 1 1  ON 11
ud_2 4.7067e-01 1 1  ON 12
ud_3 2.7672e-01 1 1  ON 13
ud_4 1.3509e-01 1 1  ON 14
ud_5 2.8378e-02 1 1  ON 15
ud_6 -5.0549e-02 1 1  ON 16
ud_7 -1.0676e-01 1 1  ON 17
ud_8 -1.3093e-01 1 1  ON 18
ud_9 -1.3867e-01 1 1  ON 19
eSi_0 -7.8312e-01 1 1  ON 20
eSi_1 -6.9039e-01 1 1  ON 21
eSi_2 -4.9570e-01 1 1  ON 22
eSi_3 -2.5040e-01 1 1  ON 23
eSi_4 -1.0133e-02 1 1  ON 24
eSi_5 1.9466e-01 1 1  ON 25
eSi_6 3.4830e-01 1 1  ON 26
eSi_7 4.4118e-01 1 1  ON 27
eSi_8 4.3895e-01 1 1  ON 28
eSi_9 3.6666e-01 1 1  ON 29
  </optVariables>
   Restore the number of walkers to 1, removing 0 walkers.
</opt>
</optimization-report>
  QMC Execution time = 3.6304e+00 secs 
  Reusing QMCFixedSampleLinearOptimize
 Using QMCCostFunction::QMCCostFunction

=========================================================
  Start QMCFixedSampleLinearOptimize
  File Root Si.log.s019 append = no 
=========================================================
  Skip QMCDriver::putQMCInfo 
  Resetting Properties of the walkers 1 x 13

=========================================================
  Start VMC
  File Root Si.log.s019 append = no 
=========================================================
Using existing walkers 
  Resetting Properties of the walkers 1 x 13

<vmc function="put">
  qmc_counter=8  my_counter=18
  time step      = 1.5000e-01
  blocks         = 200
  steps          = 3
  substeps       = 5
  current        = 0
  target samples = 5.1200e+05
  walkers/mpi    = 1

  stepsbetweensamples = 1
<parameter name="blocks" condition="int">200</parameter>
<parameter name="blocks_between_recompute" condition="int">0</parameter>
<parameter name="check_properties" condition="int">100</parameter>
<parameter name="checkproperties" condition="int">100</parameter>
<parameter name="current" condition="int">0</parameter>
<parameter name="dmcwalkersperthread" condition="real">5.0000e+02</parameter>
<parameter name="maxcpusecs" condition="real">3.6000e+05</parameter>
<parameter name="record_configs" condition="int">0</parameter>
<parameter name="record_walkers" condition="int">1</parameter>
<parameter name="recordconfigs" condition="int">0</parameter>
<parameter name="recordwalkers" condition="int">1</parameter>
<parameter name="rewind" condition="int">0</parameter>
<parameter name="samples" condition="real">5.1200e+05</parameter>
<parameter name="samplesperthread" condition="real">5.0000e+02</parameter>
<parameter name="steps" condition="int">3</parameter>
<parameter name="stepsbetweensamples" condition="int">1</parameter>
<parameter name="store_configs" condition="int">0</parameter>
<parameter name="storeconfigs" condition="int">0</parameter>
<parameter name="sub_steps" condition="int">5</parameter>
<parameter name="substeps" condition="int">5</parameter>
<parameter name="tau" condition="au">1.5000e-01</parameter>
<parameter name="time_step" condition="au">1.5000e-01</parameter>
<parameter name="timestep" condition="au">1.5000e-01</parameter>
<parameter name="use_drift" condition="string">no</parameter>
<parameter name="usedrift" condition="string">no</parameter>
<parameter name="walkers" condition="int">1</parameter>
<parameter name="warmup_steps" condition="int">0</parameter>
<parameter name="warmupsteps" condition="int">0</parameter>
  DumpConfig==false Nothing (configurations, state) will be saved.
  Walker Samples are dumped every 1 steps.
</vmc>
  EstimatorManagerBase::add replace LocalEnergy estimator.
  EstimatorManagerBase::add replace LocalEnergy estimator.
<optimization-report>
<vmc stage="main" blocks="200">
  Cannot make clones again. Use existing 1 clones
  Initial partition of walkers 0 1 
  Using Particle by Particle moves
  Walker moves without drift
  Total Sample Size   =512000
  Walker distribution on root = 0 1 
  Using Locality Approximation
===== Memory Usage after the buffer registration =====
Available memory on node 0, free + buffers : 84631 MB
Memory footprint by rank 0 on node 0       : 105 MB
==================================================
====================================================
  SimpleFixedNodeBranch::finalize after a VMC block
    QMC counter        = 19
    time step          = 0.15
    reference energy   = -3.75452
    reference variance = 0.026287
====================================================
  Execution time = 2.1559e+00
</vmc>
<opt stage="setup">
  <log>
   Reading configurations from h5FileRoot Si.log.s019
  QMCCostFunction is created with 1 threads.
  Using Nonlocal PP in Opt: NonLocalECP
   Number of samples loaded to each thread : 500 
  VMC Eavg = -3.7518e+00
  VMC Evar = 2.6385e-02
  Total weights = 5.1200e+05
  Execution time = 7.2883e-01
  </log>
</opt>
<opt stage="main" walkers="512000">
  <log>

*****************************************
Building overlap and Hamiltonian matrices
*****************************************

Among totally 30 optimized parameters, largest LM parameter change : 1.1914e-02 at parameter 11

******************************************************************************
Init Cost =  -3.5629e+00    New Cost =  -3.5630e+00  Delta Cost =  -3.3660e-05
******************************************************************************

The new set of parameters is valid. Updating the trial wave function!

*****************************************************************************
Applying the update for shift_i =   1.0000e-02     and shift_s =   3.9062e-03
*****************************************************************************
  Execution time = 3.6223e+00
  </log>
  <optVariables href="Si.log.s019.opt.xml">
uu_0 7.2284e-01 1 1  ON 0
uu_1 5.6618e-01 1 1  ON 1
uu_2 3.9303e-01 1 1  ON 2
uu_3 2.6466e-01 1 1  ON 3
uu_4 1.5991e-01 1 1  ON 4
uu_5 7.5431e-02 1 1  ON 5
uu_6 1.0377e-02 1 1  ON 6
uu_7 -3.6630e-02 1 1  ON 7
uu_8 -6.0117e-02 1 1  ON 8
uu_9 -6.7581e-02 1 1  ON 9
ud_0 1.1249e+00 1 1  ON 10
ud_1 7.6054e-01 1 1  ON 11
ud_2 4.8210e-01 1 1  ON 12
ud_3 2.8745e-01 1 1  ON 13
ud_4 1.4542e-01 1 1  ON 14
ud_5 3.7876e-02 1 1  ON 15
ud_6 -4.1858e-02 1 1  ON 16
ud_7 -9.8585e-02 1 1  ON 17
ud_8 -1.2395e-01 1 1  ON 18
ud_9 -1.3232e-01 1 1  ON 19
eSi_0 -7.9097e-01 1 1  ON 20
eSi_1 -6.9970e-01 1 1  ON 21
eSi_2 -5.0439e-01 1 1  ON 22
eSi_3 -2.5761e-01 1 1  ON 23
eSi_4 -1.6000e-02 1 1  ON 24
eSi_5 1.8924e-01 1 1  ON 25
eSi_6 3.4364e-01 1 1  ON 26
eSi_7 4.3886e-01 1 1  ON 27
eSi_8 4.3750e-01 1 1  ON 28
eSi_9 3.7254e-01 1 1  ON 29
  </optVariables>
   Restore the number of walkers to 1, removing 0 walkers.
</opt>
</optimization-report>
  QMC Execution time = 3.6311e+00 secs 
  Reusing QMCFixedSampleLinearOptimize
 Using QMCCostFunction::QMCCostFunction

=========================================================
  Start QMCFixedSampleLinearOptimize
  File Root Si.log.s020 append = no 
=========================================================
  Skip QMCDriver::putQMCInfo 
  Resetting Properties of the walkers 1 x 13

=========================================================
  Start VMC
  File Root Si.log.s020 append = no 
=========================================================
Using existing walkers 
  Resetting Properties of the walkers 1 x 13

<vmc function="put">
  qmc_counter=9  my_counter=19
  time step      = 1.5000e-01
  blocks         = 200
  steps          = 3
  substeps       = 5
  current        = 0
  target samples = 5.1200e+05
  walkers/mpi    = 1

  stepsbetweensamples = 1
<parameter name="blocks" condition="int">200</parameter>
<parameter name="blocks_between_recompute" condition="int">0</parameter>
<parameter name="check_properties" condition="int">100</parameter>
<parameter name="checkproperties" condition="int">100</parameter>
<parameter name="current" condition="int">0</parameter>
<parameter name="dmcwalkersperthread" condition="real">5.0000e+02</parameter>
<parameter name="maxcpusecs" condition="real">3.6000e+05</parameter>
<parameter name="record_configs" condition="int">0</parameter>
<parameter name="record_walkers" condition="int">1</parameter>
<parameter name="recordconfigs" condition="int">0</parameter>
<parameter name="recordwalkers" condition="int">1</parameter>
<parameter name="rewind" condition="int">0</parameter>
<parameter name="samples" condition="real">5.1200e+05</parameter>
<parameter name="samplesperthread" condition="real">5.0000e+02</parameter>
<parameter name="steps" condition="int">3</parameter>
<parameter name="stepsbetweensamples" condition="int">1</parameter>
<parameter name="store_configs" condition="int">0</parameter>
<parameter name="storeconfigs" condition="int">0</parameter>
<parameter name="sub_steps" condition="int">5</parameter>
<parameter name="substeps" condition="int">5</parameter>
<parameter name="tau" condition="au">1.5000e-01</parameter>
<parameter name="time_step" condition="au">1.5000e-01</parameter>
<parameter name="timestep" condition="au">1.5000e-01</parameter>
<parameter name="use_drift" condition="string">no</parameter>
<parameter name="usedrift" condition="string">no</parameter>
<parameter name="walkers" condition="int">1</parameter>
<parameter name="warmup_steps" condition="int">0</parameter>
<parameter name="warmupsteps" condition="int">0</parameter>
  DumpConfig==false Nothing (configurations, state) will be saved.
  Walker Samples are dumped every 1 steps.
</vmc>
  EstimatorManagerBase::add replace LocalEnergy estimator.
  EstimatorManagerBase::add replace LocalEnergy estimator.
<optimization-report>
<vmc stage="main" blocks="200">
  Cannot make clones again. Use existing 1 clones
  Initial partition of walkers 0 1 
  Using Particle by Particle moves
  Walker moves without drift
  Total Sample Size   =512000
  Walker distribution on root = 0 1 
  Using Locality Approximation
===== Memory Usage after the buffer registration =====
Available memory on node 0, free + buffers : 84629 MB
Memory footprint by rank 0 on node 0       : 107 MB
==================================================
====================================================
  SimpleFixedNodeBranch::finalize after a VMC block
    QMC counter        = 20
    time step          = 0.15
    reference energy   = -3.75549
    reference variance = 0.0214677
====================================================
  Execution time = 2.2007e+00
</vmc>
<opt stage="setup">
  <log>
   Reading configurations from h5FileRoot Si.log.s020
  QMCCostFunction is created with 1 threads.
  Using Nonlocal PP in Opt: NonLocalECP
   Number of samples loaded to each thread : 500 
  VMC Eavg = -3.7510e+00
  VMC Evar = 2.6660e-02
  Total weights = 5.1200e+05
  Execution time = 7.2048e-01
  </log>
</opt>
<opt stage="main" walkers="512000">
  <log>

*****************************************
Building overlap and Hamiltonian matrices
*****************************************

Among totally 30 optimized parameters, largest LM parameter change : 1.0529e-02 at parameter 0

******************************************************************************
Init Cost =  -3.5621e+00    New Cost =  -3.5621e+00  Delta Cost =  -3.7115e-05
******************************************************************************

The new set of parameters is valid. Updating the trial wave function!

*****************************************************************************
Applying the update for shift_i =   1.0000e-02     and shift_s =   3.9062e-03
*****************************************************************************
  Execution time = 3.6392e+00
  </log>
  <optVariables href="Si.log.s020.opt.xml">
uu_0 7.3337e-01 1 1  ON 0
uu_1 5.7149e-01 1 1  ON 1
uu_2 3.9851e-01 1 1  ON 2
uu_3 2.6946e-01 1 1  ON 3
uu_4 1.6458e-01 1 1  ON 4
uu_5 8.0260e-02 1 1  ON 5
uu_6 1.4781e-02 1 1  ON 6
uu_7 -3.2576e-02 1 1  ON 7
uu_8 -5.7123e-02 1 1  ON 8
uu_9 -6.5685e-02 1 1  ON 9
ud_0 1.1347e+00 1 1  ON 10
ud_1 7.6984e-01 1 1  ON 11
ud_2 4.9103e-01 1 1  ON 12
ud_3 2.9590e-01 1 1  ON 13
ud_4 1.5385e-01 1 1  ON 14
ud_5 4.6431e-02 1 1  ON 15
ud_6 -3.3267e-02 1 1  ON 16
ud_7 -9.0661e-02 1 1  ON 17
ud_8 -1.1743e-01 1 1  ON 18
ud_9 -1.2689e-01 1 1  ON 19
eSi_0 -7.9885e-01 1 1  ON 20
eSi_1 -7.0964e-01 1 1  ON 21
eSi_2 -5.1446e-01 1 1  ON 22
eSi_3 -2.6754e-01 1 1  ON 23
eSi_4 -2.5024e-02 1 1  ON 24
eSi_5 1.8222e-01 1 1  ON 25
eSi_6 3.3924e-01 1 1  ON 26
eSi_7 4.3776e-01 1 1  ON 27
eSi_8 4.4046e-01 1 1  ON 28
eSi_9 3.7965e-01 1 1  ON 29
  </optVariables>
   Restore the number of walkers to 1, removing 0 walkers.
</opt>
</optimization-report>
  QMC Execution time = 3.6472e+00 secs 
  Total Execution time = 6.0285e+01 secs

=========================================================
  A new xml input file : Si.log.s020.cont.xml
TACC:  Shutdown complete. Exiting. 
