
 Primary working directories    : /global/cscratch1/sd/aannabe
 Secondary working directories  : /global/cscratch1/sd/aannabe
 Wavefunction directory         : /global/homes/a/aannabe/wfu/
 Main file repository           : /global/cscratch1/sd/aannabe/

 SHA1      : 2873118e99aab1bc19f5b6fc1784693c06d15c95
 NAME      : 2015.1.8
 ARCHNAME  : linux/x86_64
 FC        : /opt/cray/pe/craype/2.5.5/bin/ftn
 BLASLIB   : -Wl,-_start-group /opt/intel/compilers_and_libraries_2016.3.210/linux/mkl/lib/intel64/libmkl_intel_ilp64.a /opt/intel/compilers_and_libraries_2016.3.210/linux/mkl/lib/intel64/libmkl_intel_thread.a /opt/intel/compilers_and_libraries_2016.3.210/linux/mkl/lib/intel64/libmkl_core.a -Wl,-_end-group
 id        : lbl

 Nodes     nprocs
 nid00488     1

 Using customized tuning parameters: mindgm=8; mindgv=16; mindgc=4; mindgr=1; noblas=0; minvec=7
 default implementation of scratch files=df  

 ***,Sc
 memory,8,g
 gthresh,twoint=1.e-12
 
 gprint,basis,orbitals
 gexpec,ekin,pot
 
 angstrom
 geometry={
 1                                                                               ! Number of atoms
 Sc 0.0 0.0 0.0
 }
 
 basis={
 Including file /global/homes/a/aannabe/docs/accurate/ccECP_D2h/pps/Sc.pp
 Including file /global/homes/a/aannabe/docs/accurate/ccECP_D2h/basis/aug-cc-pVnZ/Sc_tz.basis
 }
 
 {hf
 wf,11,1,1
 occ,3,1,1,0,1,0,0,0
 open,3.1
 sym,1,1,1,3,2
 }
 scf(i)=energy
 
 _CC_NORM_MAX=2.0
  !NOTE: Perturbative MRCC works only with UHF reference. So, here we will trick MRCC by doing zero UHF iteration right after ROHF.
 
 {uhf
 wf,11,1,1
 occ,3,1,1,0,1,0,0,0
 open,3.1
 sym,1,1,1,3,2
 maxit,0
 }
 scf(i)=energy
 
 {mrcc,method=CCSDT(Q),dir=mrccdir                                               !,restart=1
 orbital,ignore_error=1                                                          !Ignore the fact that UHF WF is not converged
 maxit,100
 core
 }
 posthf(i)=energy
 
 table,scf,posthf,ekin,pot
 save,3.csv,new
 
 

 Variables initialized (889), CPU time= 0.00 sec
 Commands  initialized (702), CPU time= 0.02 sec, 572 directives.
 Default parameters read. Elapsed time= 0.24 sec

 Checking input...
 Passed
1


                                         ***  PROGRAM SYSTEM MOLPRO  ***
                                       Copyright, TTI GmbH Stuttgart, 2015
                                    Version 2015.1 linked Sep  7 2016 23:09:38


 **********************************************************************************************************************************
 LABEL *   Sc                                                                            
  64 bit serial version                                                                  DATE: 28-Oct-18          TIME: 20:56:34  
 **********************************************************************************************************************************

 SHA1:             2873118e99aab1bc19f5b6fc1784693c06d15c95
 **********************************************************************************************************************************

 THRESHOLDS:

 ZERO    =  1.00D-12  ONEINT  =  1.00D-12  TWOINT  =  1.00D-12  PREFAC  =  1.00D-14  LOCALI  =  1.00D-09  EORDER  =  1.00D-04
 ENERGY  =  0.00D+00  ETEST   =  0.00D+00  EDENS   =  0.00D+00  THRDEDEF=  1.00D-06  GRADIENT=  1.00D-02  STEP    =  1.00D-03
 ORBITAL =  1.00D-05  CIVEC   =  1.00D-05  COEFF   =  1.00D-04  PRINTCI =  5.00D-02  PUNCHCI =  9.90D+01  OPTGRAD =  3.00D-04
 OPTENERG=  1.00D-06  OPTSTEP =  3.00D-04  THRGRAD =  1.00D-10  COMPRESS=  1.00D-11  VARMIN  =  1.00D-07  VARMAX  =  1.00D-03
 THRDOUB =  0.00D+00  THRDIV  =  1.00D-05  THRRED  =  1.00D-07  THRPSP  =  1.00D+00  THRDC   =  1.00D-10  THRCS   =  1.00D-10
 THRNRM  =  1.00D-08  THREQ   =  0.00D+00  THRDE   =  1.00D+00  THRREF  =  1.00D-05  SPARFAC =  1.00D+00  THRDLP  =  1.00D-07
 THRDIA  =  1.00D-10  THRDLS  =  1.00D-07  THRGPS  =  0.00D+00  THRKEX  =  0.00D+00  THRDIS  =  2.00D-01  THRVAR  =  1.00D-10
 THRLOC  =  1.00D-06  THRGAP  =  1.00D-06  THRLOCT = -1.00D+00  THRGAPT = -1.00D+00  THRORB  =  1.00D-06  THRMLTP =  0.00D+00
 THRCPQCI=  1.00D-10  KEXTA   =  0.00D+00  THRCOARS=  0.00D+00  SYMTOL  =  1.00D-06  GRADTOL =  1.00D-06  THROVL  =  1.00D-08
 THRORTH =  1.00D-08  GRID    =  1.00D-06  GRIDMAX =  1.00D-03  DTMAX   =  0.00D+00  THROCCDE=  1.00D-01  THROCCDE=  1.00D-01



 ZUNIT=ANG
 

Geometry recognized as XYZ


 Variable memory set to 8000000000 words,  buffer space   230000 words

 SETTING BASIS          =    USERDEF


 Recomputing integrals since basis changed


 Using spherical harmonics



 PROGRAM * SEWARD (Integral evaluation for generally contracted gaussian basis sets)     Author: Roland Lindh, 1990

 Geometry written to block  1 of record 700

 Orientation using atomic masses  
 Molecule type: Atom
 Symmetry elements: X,Y,Z
 Rotational constants:       0.0000000      0.0000000      0.0000000 GHz  (calculated with average atomic masses)

 Point group  D2h 



 ATOMIC COORDINATES

 NR  ATOM    CHARGE       X              Y              Z

   1  SC     11.00    0.000000000    0.000000000    0.000000000


          SC  CORE POTENTIAL

          d POTENTIAL

 POWERS             1              3              2              2
 EXPONENTIALS   16.02394       14.08647       11.93985       3.694401    
 COEFFICIENTS   11.00000       176.2634      -83.68150      0.4328276    

          s - d POTENTIAL

 POWERS             2              2
 EXPONENTIALS   11.49467       5.010314    
 COEFFICIENTS   153.9653       14.93676    

          p - d POTENTIAL

 POWERS             2              2
 EXPONENTIALS   11.45127       4.767984    
 COEFFICIENTS   97.21726       10.81704    


 BASIS DATA

   Nr Sym  Nuc  Type         Exponents   Contraction coefficients

    1.1 Ag    1  1s          66.882574     0.000553   -0.000139   -0.000679   -0.001452    0.000000
    2.1 Ag                   33.776681    -0.005115    0.001345    0.005456    0.011362    0.000000
    3.1 Ag                   18.185884     0.004161   -0.001445   -0.016684   -0.039876    0.000000
    4.1 Ag                   11.748619     0.121603   -0.032082   -0.031739   -0.025810    0.000000
    5.1 Ag                    6.895190    -0.270137    0.075506    0.109560    0.157943    0.000000
                              3.222124    -0.324410    0.089927    0.233293    0.452868    0.000000
                              1.772120     0.291162   -0.090086   -0.310207   -0.766587    0.000000
                              0.841163     0.628931   -0.216444   -0.245083   -0.607800    0.000000
                              0.471976     0.273406   -0.179250   -1.175248   -1.716002    0.000000
                              0.313224     0.135352   -0.128160    1.032359    3.614003    0.000000
                              0.101013     0.008041    0.337935    1.599039   -0.569480    0.000000
                              0.049071    -0.002610    0.609181   -0.623990   -2.255967    0.000000
                              0.022782     0.000597    0.244181   -0.847498    1.910160    1.000000
    6.1 Ag    1  1s           0.011000     1.000000
    7.1 Ag    1  3d0         60.996829     0.000056
                             22.097637     0.005054
                             10.186744     0.032223
                              4.633892     0.082479
                              2.146927     0.159363
                              1.014536     0.228604
                              0.487206     0.243691
                              0.248191     0.231651
                              0.131273     0.195431
                              0.063714     0.214589
                              0.021542     0.074113
    8.1 Ag    1  3d2+        60.996829     0.000056
                             22.097637     0.005054
                             10.186744     0.032223
                              4.633892     0.082479
                              2.146927     0.159363
                              1.014536     0.228604
                              0.487206     0.243691
                              0.248191     0.231651
                              0.131273     0.195431
                              0.063714     0.214589
                              0.021542     0.074113
    9.1 Ag    1  3d0         60.996829    -0.000072
                             22.097637    -0.006079
                             10.186744    -0.039054
                              4.633892    -0.100652
                              2.146927    -0.194330
                              1.014536    -0.253556
                              0.487206    -0.213556
                              0.248191     0.054182
                              0.131273     0.261188
                              0.063714     0.520215
                              0.021542     0.166907
   10.1 Ag    1  3d2+        60.996829    -0.000072
                             22.097637    -0.006079
                             10.186744    -0.039054
                              4.633892    -0.100652
                              2.146927    -0.194330
                              1.014536    -0.253556
                              0.487206    -0.213556
                              0.248191     0.054182
                              0.131273     0.261188
                              0.063714     0.520215
                              0.021542     0.166907
   11.1 Ag    1  3d0         60.996829     0.000054
                             22.097637     0.008195
                             10.186744     0.050073
                              4.633892     0.136174
                              2.146927     0.246516
                              1.014536     0.258158
                              0.487206    -0.124799
                              0.248191    -0.439081
                              0.131273    -0.475347
                              0.063714     0.527187
                              0.021542     0.473373
   12.1 Ag    1  3d2+        60.996829     0.000054
                             22.097637     0.008195
                             10.186744     0.050073
                              4.633892     0.136174
                              2.146927     0.246516
                              1.014536     0.258158
                              0.487206    -0.124799
                              0.248191    -0.439081
                              0.131273    -0.475347
                              0.063714     0.527187
                              0.021542     0.473373
   13.1 Ag    1  3d0         60.996829     0.000000
                             22.097637     0.000000
                             10.186744     0.000000
                              4.633892     0.000000
                              2.146927     0.000000
                              1.014536     0.000000
                              0.487206     0.000000
                              0.248191     0.000000
                              0.131273     0.000000
                              0.063714     0.000000
                              0.021542     1.000000
   14.1 Ag    1  3d2+        60.996829     0.000000
                             22.097637     0.000000
                             10.186744     0.000000
                              4.633892     0.000000
                              2.146927     0.000000
                              1.014536     0.000000
                              0.487206     0.000000
                              0.248191     0.000000
                              0.131273     0.000000
                              0.063714     0.000000
                              0.021542     1.000000
   15.1 Ag    1  3d0          0.010000     1.000000
   16.1 Ag    1  3d2+         0.010000     1.000000
   17.1 Ag    1  5g0          0.132455     1.000000
   18.1 Ag    1  5g4+         0.132455     1.000000
   19.1 Ag    1  5g2+         0.132455     1.000000
   20.1 Ag    1  5g0          0.413265     1.000000
   21.1 Ag    1  5g4+         0.413265     1.000000
   22.1 Ag    1  5g2+         0.413265     1.000000
    1.2 B3u   1  2px         77.690832     0.000088    0.000017   -0.000063   -0.000243    0.000000
    2.2 B3u                  39.751864    -0.000754   -0.000026    0.000549    0.001568    0.000000
    3.2 B3u                  20.615633     0.006584   -0.000861   -0.005120   -0.009554    0.000000
    4.2 B3u                  11.537150    -0.007189   -0.000483    0.007011    0.018020    0.000000
    5.2 B3u                   7.597186    -0.068903    0.021364    0.053661    0.051008    0.000000
                              3.765117    -0.013842   -0.003706    0.003574    0.043280    0.000000
                              2.051006     0.248704   -0.058718   -0.235861   -0.404178    0.000000
                              1.048648     0.434328   -0.143364   -0.494801   -0.824904    0.000000
                              0.550231     0.326906   -0.077280   -0.229575    0.710014    0.000000
                              0.303840     0.104617   -0.107764    0.917973    2.225255    0.000000
                              0.165809     0.018512    0.322859    0.621155   -2.742903    0.000000
                              0.060419     0.001395    0.621726   -0.824648    0.581423    0.000000
                              0.024751     0.000093    0.253787   -0.157592    0.480910    1.000000
    6.2 B3u   1  2px          0.012000     1.000000
    7.2 B3u   1  4f1+         0.040310     1.000000
    8.2 B3u   1  4f3+         0.040310     1.000000
    9.2 B3u   1  4f1+         0.173012     1.000000
   10.2 B3u   1  4f3+         0.173012     1.000000
   11.2 B3u   1  4f1+         0.742579     1.000000
   12.2 B3u   1  4f3+         0.742579     1.000000
    1.3 B2u   1  2py         77.690832     0.000088    0.000017   -0.000063   -0.000243    0.000000
    2.3 B2u                  39.751864    -0.000754   -0.000026    0.000549    0.001568    0.000000
    3.3 B2u                  20.615633     0.006584   -0.000861   -0.005120   -0.009554    0.000000
    4.3 B2u                  11.537150    -0.007189   -0.000483    0.007011    0.018020    0.000000
    5.3 B2u                   7.597186    -0.068903    0.021364    0.053661    0.051008    0.000000
                              3.765117    -0.013842   -0.003706    0.003574    0.043280    0.000000
                              2.051006     0.248704   -0.058718   -0.235861   -0.404178    0.000000
                              1.048648     0.434328   -0.143364   -0.494801   -0.824904    0.000000
                              0.550231     0.326906   -0.077280   -0.229575    0.710014    0.000000
                              0.303840     0.104617   -0.107764    0.917973    2.225255    0.000000
                              0.165809     0.018512    0.322859    0.621155   -2.742903    0.000000
                              0.060419     0.001395    0.621726   -0.824648    0.581423    0.000000
                              0.024751     0.000093    0.253787   -0.157592    0.480910    1.000000
    6.3 B2u   1  2py          0.012000     1.000000
    7.3 B2u   1  4f1-         0.040310     1.000000
    8.3 B2u   1  4f3-         0.040310     1.000000
    9.3 B2u   1  4f1-         0.173012     1.000000
   10.3 B2u   1  4f3-         0.173012     1.000000
   11.3 B2u   1  4f1-         0.742579     1.000000
   12.3 B2u   1  4f3-         0.742579     1.000000
    1.4 B1g   1  3d2-        60.996829     0.000056   -0.000072    0.000054    0.000000
    2.4 B1g                  22.097637     0.005054   -0.006079    0.008195    0.000000
    3.4 B1g                  10.186744     0.032223   -0.039054    0.050073    0.000000
    4.4 B1g                   4.633892     0.082479   -0.100652    0.136174    0.000000
                              2.146927     0.159363   -0.194330    0.246516    0.000000
                              1.014536     0.228604   -0.253556    0.258158    0.000000
                              0.487206     0.243691   -0.213556   -0.124799    0.000000
                              0.248191     0.231651    0.054182   -0.439081    0.000000
                              0.131273     0.195431    0.261188   -0.475347    0.000000
                              0.063714     0.214589    0.520215    0.527187    0.000000
                              0.021542     0.074113    0.166907    0.473373    1.000000
    5.4 B1g   1  3d2-         0.010000     1.000000
    6.4 B1g   1  5g2-         0.132455     1.000000
    7.4 B1g   1  5g4-         0.132455     1.000000
    8.4 B1g   1  5g2-         0.413265     1.000000
    9.4 B1g   1  5g4-         0.413265     1.000000
    1.5 B1u   1  2pz         77.690832     0.000088    0.000017   -0.000063   -0.000243    0.000000
    2.5 B1u                  39.751864    -0.000754   -0.000026    0.000549    0.001568    0.000000
    3.5 B1u                  20.615633     0.006584   -0.000861   -0.005120   -0.009554    0.000000
    4.5 B1u                  11.537150    -0.007189   -0.000483    0.007011    0.018020    0.000000
    5.5 B1u                   7.597186    -0.068903    0.021364    0.053661    0.051008    0.000000
                              3.765117    -0.013842   -0.003706    0.003574    0.043280    0.000000
                              2.051006     0.248704   -0.058718   -0.235861   -0.404178    0.000000
                              1.048648     0.434328   -0.143364   -0.494801   -0.824904    0.000000
                              0.550231     0.326906   -0.077280   -0.229575    0.710014    0.000000
                              0.303840     0.104617   -0.107764    0.917973    2.225255    0.000000
                              0.165809     0.018512    0.322859    0.621155   -2.742903    0.000000
                              0.060419     0.001395    0.621726   -0.824648    0.581423    0.000000
                              0.024751     0.000093    0.253787   -0.157592    0.480910    1.000000
    6.5 B1u   1  2pz          0.012000     1.000000
    7.5 B1u   1  4f0          0.040310     1.000000
    8.5 B1u   1  4f2+         0.040310     1.000000
    9.5 B1u   1  4f0          0.173012     1.000000
   10.5 B1u   1  4f2+         0.173012     1.000000
   11.5 B1u   1  4f0          0.742579     1.000000
   12.5 B1u   1  4f2+         0.742579     1.000000
    1.6 B2g   1  3d1+        60.996829     0.000056   -0.000072    0.000054    0.000000
    2.6 B2g                  22.097637     0.005054   -0.006079    0.008195    0.000000
    3.6 B2g                  10.186744     0.032223   -0.039054    0.050073    0.000000
    4.6 B2g                   4.633892     0.082479   -0.100652    0.136174    0.000000
                              2.146927     0.159363   -0.194330    0.246516    0.000000
                              1.014536     0.228604   -0.253556    0.258158    0.000000
                              0.487206     0.243691   -0.213556   -0.124799    0.000000
                              0.248191     0.231651    0.054182   -0.439081    0.000000
                              0.131273     0.195431    0.261188   -0.475347    0.000000
                              0.063714     0.214589    0.520215    0.527187    0.000000
                              0.021542     0.074113    0.166907    0.473373    1.000000
    5.6 B2g   1  3d1+         0.010000     1.000000
    6.6 B2g   1  5g1+         0.132455     1.000000
    7.6 B2g   1  5g3+         0.132455     1.000000
    8.6 B2g   1  5g1+         0.413265     1.000000
    9.6 B2g   1  5g3+         0.413265     1.000000
    1.7 B3g   1  3d1-        60.996829     0.000056   -0.000072    0.000054    0.000000
    2.7 B3g                  22.097637     0.005054   -0.006079    0.008195    0.000000
    3.7 B3g                  10.186744     0.032223   -0.039054    0.050073    0.000000
    4.7 B3g                   4.633892     0.082479   -0.100652    0.136174    0.000000
                              2.146927     0.159363   -0.194330    0.246516    0.000000
                              1.014536     0.228604   -0.253556    0.258158    0.000000
                              0.487206     0.243691   -0.213556   -0.124799    0.000000
                              0.248191     0.231651    0.054182   -0.439081    0.000000
                              0.131273     0.195431    0.261188   -0.475347    0.000000
                              0.063714     0.214589    0.520215    0.527187    0.000000
                              0.021542     0.074113    0.166907    0.473373    1.000000
    5.7 B3g   1  3d1-         0.010000     1.000000
    6.7 B3g   1  5g1-         0.132455     1.000000
    7.7 B3g   1  5g3-         0.132455     1.000000
    8.7 B3g   1  5g1-         0.413265     1.000000
    9.7 B3g   1  5g3-         0.413265     1.000000
    1.8 Au    1  4f2-         0.040310     1.000000
    2.8 Au    1  4f2-         0.173012     1.000000
    3.8 Au    1  4f2-         0.742579     1.000000

 NUCLEAR CHARGE:                   11
 NUMBER OF PRIMITIVE AOS:         188
 NUMBER OF SYMMETRY AOS:          155
 NUMBER OF CONTRACTIONS:           88   (  22Ag  +  12B3u +  12B2u +   9B1g +  12B1u +   9B2g +   9B3g +   3Au  )
 NUMBER OF CORE ORBITALS:           4   (   1Ag  +   1B3u +   1B2u +   0B1g +   1B1u +   0B2g +   0B3g +   0Au  )
 NUMBER OF VALENCE ORBITALS:        6   (   3Ag  +   0B3u +   0B2u +   1B1g +   0B1u +   1B2g +   1B3g +   0Au  )


 NUCLEAR REPULSION ENERGY    0.00000000

 EXTRA SYMMETRY OF AOS IN SYMMETRY 1:   1 1 1 1 1 1 2 3 2 3   2 3 2 3 2 3 4 5 6 4   5 6
 EXTRA SYMMETRY OF AOS IN SYMMETRY 2:   1 1 1 1 1 1 2 3 2 3   2 3
 EXTRA SYMMETRY OF AOS IN SYMMETRY 3:   1 1 1 1 1 1 2 3 2 3   2 3
 EXTRA SYMMETRY OF AOS IN SYMMETRY 4:   1 1 1 1 1 2 3 2 3
 EXTRA SYMMETRY OF AOS IN SYMMETRY 5:   1 1 1 1 1 1 2 3 2 3   2 3
 EXTRA SYMMETRY OF AOS IN SYMMETRY 6:   1 1 1 1 1 2 3 2 3
 EXTRA SYMMETRY OF AOS IN SYMMETRY 7:   1 1 1 1 1 2 3 2 3

 Eigenvalues of metric

         1 0.982E-03 0.698E-01 0.748E-01 0.748E-01 0.462E+00 0.462E+00 0.571E+00 0.571E+00
         2 0.196E-01 0.304E+00 0.542E+00 0.542E+00 0.846E+00 0.974E+00 0.975E+00 0.975E+00
         3 0.196E-01 0.304E+00 0.542E+00 0.542E+00 0.846E+00 0.974E+00 0.975E+00 0.975E+00
         4 0.748E-01 0.462E+00 0.571E+00 0.571E+00 0.931E+00 0.104E+01 0.143E+01 0.143E+01
         5 0.196E-01 0.304E+00 0.542E+00 0.542E+00 0.846E+00 0.974E+00 0.975E+00 0.975E+00
         6 0.748E-01 0.462E+00 0.571E+00 0.571E+00 0.931E+00 0.104E+01 0.143E+01 0.143E+01
         7 0.748E-01 0.462E+00 0.571E+00 0.571E+00 0.931E+00 0.104E+01 0.143E+01 0.143E+01
         8 0.542E+00 0.975E+00 0.148E+01


 Contracted 2-electron integrals neglected if value below      1.0D-12
 AO integral compression algorithm  1   Integral accuracy      1.0D-12

     7.602 MB (compressed) written to integral file ( 51.5%)


 NUMBER OF SORTED TWO-ELECTRON INTEGRALS:    1019164.     BUFFER LENGTH:  32768
 NUMBER OF SEGMENTS:   1  SEGMENT LENGTH:    1019164      RECORD LENGTH: 524288

 Memory used in sort:       1.58 MW

 SORT1 READ     1855900. AND WROTE      770922. INTEGRALS IN      3 RECORDS. CPU TIME:     0.04 SEC, REAL TIME:     0.08 SEC
 SORT2 READ      770922. AND WROTE     1019164. INTEGRALS IN     29 RECORDS. CPU TIME:     0.09 SEC, REAL TIME:     0.15 SEC

 FILE SIZES:   FILE 1:    26.9 MBYTE,  FILE 4:    12.6 MBYTE,   TOTAL:     39.5 MBYTE

 OPERATOR DM      FOR CENTER  0  COORDINATES:    0.000000    0.000000    0.000000
 OPERATOR EKIN    FOR CENTER  0  COORDINATES:    0.000000    0.000000    0.000000
 OPERATOR POT     FOR CENTER  0  COORDINATES:    0.000000    0.000000    0.000000


 **********************************************************************************************************************************
 DATASETS  * FILE   NREC   LENGTH (MB)   RECORD NAMES
              1      20       23.46       500      610      700      900      950      970     1000      129      960     1100   
                                          VAR    BASINP    GEOM    SYMINP    ZMAT    AOBASIS   BASIS     P2S    ABASIS      S 
                                         1400     1410     1420     1200     1210     1080     1600     1650     1300     1700   
                                         EKIN       V       ECP      H0       H01     AOSYM     SMH    MOLCAS    ERIS     OPER   

 PROGRAMS   *        TOTAL       INT
 CPU TIMES  *         3.15      3.01
 REAL TIME  *        15.41 SEC
 DISK USED  *        39.80 MB      
 **********************************************************************************************************************************


 PROGRAM * RHF-SCF (OPEN SHELL)       Authors: W. Meyer, H.-J. Werner


 NUMBER OF ELECTRONS:       6+    5-    SPACE SYMMETRY=1    SPIN SYMMETRY: Doublet 
 CONVERGENCE THRESHOLDS:    1.00E-05 (Density)    1.00E-07 (Energy)
 MAX. NUMBER OF ITERATIONS:       60
 INTERPOLATION TYPE:            DIIS
 INTERPOLATION STEPS:              2 (START)      1 (STEP)
 LEVEL SHIFTS:                 -0.60 (CLOSED) -0.30 (OPEN) 


 Singly occupied orbitals:      3.1
 
 Extra symmetries of mos in symmetry 1:   1   1   3   2

   Atom=SC basis=ECP10MDF_GUESS    lmin=0  lmax=2

 Orbital guess generated from atomic densities. Full valence occupancy:    4   1   1   1   1   1   1   0


 Molecular orbital dump at record        2100.2

 ITERATION    DDIFF          GRAD             ENERGY        2-EL.EN.            DIPOLE MOMENTS         DIIS   ORB.
    1      0.000D+00      0.000D+00       -45.82446938     51.957995    0.00000    0.00000    0.00000    0    start
    2      0.000D+00      0.219D-01       -45.89717360     54.250351    0.00000    0.00000    0.00000    1    diag,B
    3      0.200D-01      0.662D-02       -45.95816621     56.743619    0.00000    0.00000    0.00000    2    diag,B
    4      0.238D-01      0.694D-02       -46.02402237     59.213929    0.00000    0.00000    0.00000    3    diag,B
    5      0.223D-01      0.787D-02       -46.11652054     61.435249    0.00000    0.00000    0.00000    4    diag,B
    6      0.319D-01      0.304D-02       -46.12011801     61.594733    0.00000    0.00000    0.00000    5    diag,B
    7      0.343D-02      0.278D-02       -46.12107768     61.585560    0.00000    0.00000    0.00000    6    fixocc
    8      0.162D-02      0.212D-02       -46.12134082     61.584503    0.00000    0.00000    0.00000    7    diag,B
    9      0.117D-02      0.185D-02       -46.12172584     61.463325    0.00000    0.00000    0.00000    8    diag,B
   10      0.132D-02      0.738D-03       -46.12179764     61.396555    0.00000    0.00000    0.00000    9    orth
   11      0.681D-03      0.354D-03       -46.12184051     61.366734    0.00000    0.00000    0.00000    9    diag,B
   12      0.623D-03      0.748D-04       -46.12184391     61.352619    0.00000    0.00000    0.00000    9    diag,B
   13      0.199D-03      0.302D-04       -46.12184461     61.350286    0.00000    0.00000    0.00000    9    diag,B
   14      0.785D-04      0.309D-04       -46.12184510     61.353470    0.00000    0.00000    0.00000    9    diag,B
   15      0.111D-03      0.698D-05       -46.12184514     61.353518    0.00000    0.00000    0.00000    9    diag,B
   16      0.286D-04      0.342D-05       -46.12184515     61.353801    0.00000    0.00000    0.00000    9    diag,B
   17      0.971D-05      0.169D-05       -46.12184515     61.353811    0.00000    0.00000    0.00000    0    orth

 Final alpha occupancy:   3   1   1   0   1   0   0   0
 Final beta  occupancy:   2   1   1   0   1   0   0   0

 !RHF STATE 1.1 Energy                -46.121845149309
 Nuclear energy                         0.00000000
 One-electron energy                  -76.79875044
 Two-electron energy                   30.67690529
 Virial quotient                       -2.45433837
 !RHF STATE 1.1 Dipole moment           0.00000000     0.00000000     0.00000000
 Dipole moment /Debye                   0.00000000     0.00000000     0.00000000
 

 !RHF expec          <1.1|EKIN|1.1>    18.791966796709
 
 !RHF expec           <1.1|POT|1.1>    -9.374253132346

 ELECTRON ORBITALS
 =================


   Orb  Occ    Energy  Couls-En    Coefficients

                                   1 1s      1 1s      1 1s      1 1s      1 1s      1 1s      1 3d0     1 3d2+    1 3d0     1 3d2+ 
                                   1 3d0     1 3d2+    1 3d0     1 3d2+    1 3d0     1 3d2+    1 5g0     1 5g4+    1 5g2+    1 5g0  
                                   1 5g4+    1 5g2+ 

   1.1   2    -2.5953  -11.4636  0.999916 -0.000140  0.000053  0.000046  0.000365 -0.000224  0.006234  0.000000 -0.003892 -0.000000
                                 0.002847  0.000000 -0.001532 -0.000000  0.000163  0.000000 -0.000021 -0.000104 -0.000000  0.000223
                                 0.001240  0.000000

   2.1   2    -0.2108   -3.2790 -0.000064  0.999601  0.000146 -0.000068 -0.000690  0.000829  0.025922  0.000000  0.012189  0.000000
                                -0.002899 -0.000000 -0.001867 -0.000000  0.000239  0.000000  0.000023 -0.000317 -0.000000  0.000145
                                 0.000145  0.000000

   3.1   +    -0.3465   -6.1677 -0.000000 -0.000000 -0.000000 -0.000000 -0.000000 -0.000000  0.000001  0.986514 -0.000000 -0.270120
                                -0.000000 -0.024982 -0.000000 -0.017934  0.000000  0.001636 -0.000000 -0.000000 -0.000290 -0.000000
                                -0.000000 -0.000686

                                   1 2px     1 2px     1 2px     1 2px     1 2px     1 2px     1 4f1+    1 4f3+    1 4f1+    1 4f3+ 
                                   1 4f1+    1 4f3+ 

   1.2   2    -1.5788   -9.4272  1.001033  0.028748  0.022251  0.007102 -0.009219  0.000777  0.000102 -0.000169 -0.000642  0.002447
                                 0.002326  0.006707

                                   1 2py     1 2py     1 2py     1 2py     1 2py     1 2py     1 4f1-    1 4f3-    1 4f1-    1 4f3- 
                                   1 4f1-    1 4f3- 

   1.3   2    -1.5788   -9.4272  1.001033  0.028748  0.022251  0.007102 -0.009219  0.000777  0.000102  0.000169 -0.000642 -0.002447
                                 0.002326 -0.006707

                                   1 2pz     1 2pz     1 2pz     1 2pz     1 2pz     1 2pz     1 4f0     1 4f2+    1 4f0     1 4f2+ 
                                   1 4f0     1 4f2+ 

   1.5   2    -1.5856   -9.4409  1.001133  0.026005  0.019394  0.007654 -0.009976  0.001083  0.000073 -0.000000 -0.000008  0.000000
                                 0.004984  0.000000

 HOMO      3.1    -0.346470 =      -9.4279eV
 LUMO      2.5     0.012905 =       0.3512eV
 LUMO-HOMO         0.359375 =       9.7791eV


 **********************************************************************************************************************************
 DATASETS  * FILE   NREC   LENGTH (MB)   RECORD NAMES
              1      20       23.46       500      610      700      900      950      970     1000      129      960     1100   
                                          VAR    BASINP    GEOM    SYMINP    ZMAT    AOBASIS   BASIS     P2S    ABASIS      S 
                                         1400     1410     1420     1200     1210     1080     1600     1650     1300     1700   
                                         EKIN       V       ECP      H0       H01     AOSYM     SMH    MOLCAS    ERIS     OPER   

              2       4        2.79       700     1000      520     2100   
                                         GEOM     BASIS   MCVARS     RHF  

 PROGRAMS   *        TOTAL        HF       INT
 CPU TIMES  *         3.28      0.13      3.01
 REAL TIME  *        16.24 SEC
 DISK USED  *        39.80 MB      
 **********************************************************************************************************************************
 SETTING SCF(I)         =       -46.12184515  AU                              
 SETTING _CC_NORM_MAX   =         2.00000000                                  


 PROGRAM * UHF-SCF       Authors: W. Meyer, H.-J. Werner


 NUMBER OF ELECTRONS:       6+    5-    SPACE SYMMETRY=1    SPIN SYMMETRY: Doublet 
 CONVERGENCE THRESHOLDS:    1.00E-05 (Density)    1.00E-07 (Energy)
 MAX. NUMBER OF ITERATIONS:        0
 INTERPOLATION TYPE:            DIIS
 INTERPOLATION STEPS:              2 (START)      1 (STEP)
 LEVEL SHIFTS:                  0.20 (ALPHA)   0.20 (BETA) 


 Singly occupied orbitals:      3.1
 
 Extra symmetries of mos in symmetry 1:   1   1   3   2
 Molecular orbitals read from record     2100.2  Type=RHF/CANONICAL (state 1.1)

 Molecular orbital dump at record        2200.2

 Initial alpha occupation   3   1   1   0   1   0   0   0
 Initial beta  occupation   2   1   1   0   1   0   0   0

 ITERATION    DDIFF          GRAD             ENERGY        2-EL.EN.            DIPOLE MOMENTS         DIIS
    1      0.000D+00      0.000D+00       -46.12184515     61.353811    0.00000    0.00000    0.00000    0
 
 Final alpha occupancy:   3   1   1   0   1   0   0   0
 Final beta  occupancy:   2   1   1   0   1   0   0   0

 !UHF STATE 1.1 Energy                -46.121845149309
 Nuclear energy                         0.00000000
 One-electron energy                  -76.79875044
 Two-electron energy                   30.67690529
 Virial quotient                       -2.45433837
 !UHF STATE 1.1 Dipole moment           0.00000000     0.00000000     0.00000000
 Dipole moment /Debye                   0.00000000     0.00000000     0.00000000
 

 !UHF expec          <1.1|EKIN|1.1>    18.791966796709
 
 !UHF expec           <1.1|POT|1.1>    -9.374253132346

 ELECTRON ORBITALS FOR POSITIVE SPIN
 ===================================


   Orb  Occ    Energy  Couls-En    Coefficients

                                   1 1s      1 1s      1 1s      1 1s      1 1s      1 1s      1 3d0     1 3d2+    1 3d0     1 3d2+ 
                                   1 3d0     1 3d2+    1 3d0     1 3d2+    1 3d0     1 3d2+    1 5g0     1 5g4+    1 5g2+    1 5g0  
                                   1 5g4+    1 5g2+ 

   1.1   +    -2.5953  -11.4636  0.999916 -0.000140  0.000053  0.000046  0.000365 -0.000224  0.006234  0.000000 -0.003892 -0.000000
                                 0.002847  0.000000 -0.001532 -0.000000  0.000163  0.000000 -0.000021 -0.000104 -0.000000  0.000223
                                 0.001240  0.000000

   2.1   +    -0.2108   -3.2790 -0.000064  0.999601  0.000146 -0.000068 -0.000690  0.000829  0.025922  0.000000  0.012189  0.000000
                                -0.002899 -0.000000 -0.001867 -0.000000  0.000239  0.000000  0.000023 -0.000317 -0.000000  0.000145
                                 0.000145  0.000000

   3.1   +    -0.3465   -6.1677 -0.000000 -0.000000 -0.000000 -0.000000 -0.000000 -0.000000  0.000001  0.986514 -0.000000 -0.270120
                                -0.000000 -0.024982 -0.000000 -0.017934  0.000000  0.001636 -0.000000 -0.000000 -0.000290 -0.000000
                                -0.000000 -0.000686

                                   1 2px     1 2px     1 2px     1 2px     1 2px     1 2px     1 4f1+    1 4f3+    1 4f1+    1 4f3+ 
                                   1 4f1+    1 4f3+ 

   1.2   +    -1.5788   -9.4272  1.001033  0.028748  0.022251  0.007102 -0.009219  0.000777  0.000102 -0.000169 -0.000642  0.002447
                                 0.002326  0.006707

                                   1 2py     1 2py     1 2py     1 2py     1 2py     1 2py     1 4f1-    1 4f3-    1 4f1-    1 4f3- 
                                   1 4f1-    1 4f3- 

   1.3   +    -1.5788   -9.4272  1.001033  0.028748  0.022251  0.007102 -0.009219  0.000777  0.000102  0.000169 -0.000642 -0.002447
                                 0.002326 -0.006707

                                   1 2pz     1 2pz     1 2pz     1 2pz     1 2pz     1 2pz     1 4f0     1 4f2+    1 4f0     1 4f2+ 
                                   1 4f0     1 4f2+ 

   1.5   +    -1.5856   -9.4409  1.001133  0.026005  0.019394  0.007654 -0.009976  0.001083  0.000073 -0.000000 -0.000008  0.000000
                                 0.004984  0.000000

 ELECTRON ORBITALS FOR NEGATIVE SPIN
 ===================================


   Orb  Occ    Energy  Couls-En    Coefficients

                                   1 1s      1 1s      1 1s      1 1s      1 1s      1 1s      1 3d0     1 3d2+    1 3d0     1 3d2+ 
                                   1 3d0     1 3d2+    1 3d0     1 3d2+    1 3d0     1 3d2+    1 5g0     1 5g4+    1 5g2+    1 5g0  
                                   1 5g4+    1 5g2+ 

   1.1   -    -2.5953  -11.4636  0.999916 -0.000140  0.000053  0.000046  0.000365 -0.000224  0.006234  0.000000 -0.003892 -0.000000
                                 0.002847  0.000000 -0.001532 -0.000000  0.000163  0.000000 -0.000021 -0.000104 -0.000000  0.000223
                                 0.001240  0.000000

   2.1   -    -0.2108   -3.2790 -0.000064  0.999601  0.000146 -0.000068 -0.000690  0.000829  0.025922  0.000000  0.012189  0.000000
                                -0.002899 -0.000000 -0.001867 -0.000000  0.000239  0.000000  0.000023 -0.000317 -0.000000  0.000145
                                 0.000145  0.000000

                                   1 2px     1 2px     1 2px     1 2px     1 2px     1 2px     1 4f1+    1 4f3+    1 4f1+    1 4f3+ 
                                   1 4f1+    1 4f3+ 

   1.2   -    -1.5788   -9.4272  1.001033  0.028748  0.022251  0.007102 -0.009219  0.000777  0.000102 -0.000169 -0.000642  0.002447
                                 0.002326  0.006707

                                   1 2py     1 2py     1 2py     1 2py     1 2py     1 2py     1 4f1-    1 4f3-    1 4f1-    1 4f3- 
                                   1 4f1-    1 4f3- 

   1.3   -    -1.5788   -9.4272  1.001033  0.028748  0.022251  0.007102 -0.009219  0.000777  0.000102  0.000169 -0.000642 -0.002447
                                 0.002326 -0.006707

                                   1 2pz     1 2pz     1 2pz     1 2pz     1 2pz     1 2pz     1 4f0     1 4f2+    1 4f0     1 4f2+ 
                                   1 4f0     1 4f2+ 

   1.5   -    -1.5856   -9.4409  1.001133  0.026005  0.019394  0.007654 -0.009976  0.001083  0.000073 -0.000000 -0.000008  0.000000
                                 0.004984  0.000000

 HOMO     -2.1    -0.210839 =      -5.7372eV
 LUMO     -3.1    -0.346470 =      -9.4279eV
 LUMO-HOMO        -0.135631 =      -3.6907eV

 EXPECTATION VALUE OF S**2:             0.75000000

 Occupation number threshold for canonical orbitals:  1.999000 (occupied),  0.001000 (virtual)

 Number of pseudo-canonical orbitals per symmetry:    2   1   1   0   1   0   0   0
 Number of active natural orbitals per symmetry:      1   0   0   0   0   0   0   0

 NATURAL CHARGE ORBITALS
 =======================


   Orb     Occ        Energy       Coefficients

                                   1 1s      1 1s      1 1s      1 1s      1 1s      1 1s      1 3d0     1 3d2+    1 3d0     1 3d2+ 
                                   1 3d0     1 3d2+    1 3d0     1 3d2+    1 3d0     1 3d2+    1 5g0     1 5g4+    1 5g2+    1 5g0  
                                   1 5g4+    1 5g2+ 

   1.1  2.00000    -2.595291     0.999916 -0.000140  0.000053  0.000046  0.000365 -0.000224  0.006234  0.000000 -0.003892 -0.000000
                                 0.002847  0.000000 -0.001532 -0.000000  0.000163  0.000000 -0.000021 -0.000104 -0.000000  0.000223
                                 0.001240  0.000000

   2.1  2.00000    -0.210839    -0.000064  0.999601  0.000146 -0.000068 -0.000690  0.000829  0.025922  0.000000  0.012189  0.000000
                                -0.002899 -0.000000 -0.001867 -0.000000  0.000239  0.000000  0.000023 -0.000317 -0.000000  0.000145
                                 0.000145  0.000000

   3.1  1.00000    -0.050910    -0.000000 -0.000000 -0.000000 -0.000000 -0.000000 -0.000000  0.000001  0.986514 -0.000000 -0.270120
                                -0.000000 -0.024982 -0.000000 -0.017934  0.000000  0.001636 -0.000000 -0.000000 -0.000290 -0.000000
                                -0.000000 -0.000686

                                   1 2px     1 2px     1 2px     1 2px     1 2px     1 2px     1 4f1+    1 4f3+    1 4f1+    1 4f3+ 
                                   1 4f1+    1 4f3+ 

   1.2  2.00000    -1.578769     1.001033  0.028748  0.022251  0.007102 -0.009219  0.000777  0.000102 -0.000169 -0.000642  0.002447
                                 0.002326  0.006707

                                   1 2py     1 2py     1 2py     1 2py     1 2py     1 2py     1 4f1-    1 4f3-    1 4f1-    1 4f3- 
                                   1 4f1-    1 4f3- 

   1.3  2.00000    -1.578769     1.001033  0.028748  0.022251  0.007102 -0.009219  0.000777  0.000102  0.000169 -0.000642 -0.002447
                                 0.002326 -0.006707

                                   1 2pz     1 2pz     1 2pz     1 2pz     1 2pz     1 2pz     1 4f0     1 4f2+    1 4f0     1 4f2+ 
                                   1 4f0     1 4f2+ 

   1.5  2.00000    -1.585569     1.001133  0.026005  0.019394  0.007654 -0.009976  0.001083  0.000073 -0.000000 -0.000008  0.000000
                                 0.004984  0.000000

 Natural orbitals saved to record    2200.2 (Orbital set 3)

 Orbital spaces for UNO-CAS (Min. occupation: 0.020  Max. occupation: 1.980):

 Closed:        2   1   1   0   1   0   0   0
 Active:        1   0   0   0   0   0   0   0

 No convergence



 **********************************************************************************************************************************
 DATASETS  * FILE   NREC   LENGTH (MB)   RECORD NAMES
              1      20       23.46       500      610      700      900      950      970     1000      129      960     1100   
                                          VAR    BASINP    GEOM    SYMINP    ZMAT    AOBASIS   BASIS     P2S    ABASIS      S 
                                         1400     1410     1420     1200     1210     1080     1600     1650     1300     1700   
                                         EKIN       V       ECP      H0       H01     AOSYM     SMH    MOLCAS    ERIS     OPER   

              2       5        5.35       700     1000      520     2100     2200   
                                         GEOM     BASIS   MCVARS     RHF      UHF  

 PROGRAMS   *        TOTAL       UHF        HF       INT
 CPU TIMES  *         3.31      0.02      0.13      3.01
 REAL TIME  *        16.42 SEC
 DISK USED  *        39.80 MB      
 **********************************************************************************************************************************
 SETTING SCF(I)         =       -46.12184515  AU                              


 PROGRAM * MRCC (General Multireference Coupled Cluster)    Author: M. Kallay, 2000-2005

 ***  Initialisation ***

   0 Spin projections
 
 Molecular orbitals read from record     2200.2  Type=UHF/ALPHA (state 1.1)

 ?Warning: UHF not converged
 Molecular orbitals read from record     2200.2  Type=UHF/BETA (state 1.1)

 ?Warning: UHF not converged
 
 Frozen orbitals:              0 (  0  0  0  0  0  0  0  0)
 Active orbitals:             88 ( 22 12 12  9 12  9  9  3)
 Active electrons:            11
 Spin quantum number:          0.5

 Transformed integrals will be written to file mrccdir/mrcc_35760/fort.55

 Load integrals                3.3 sec
 Transform integrals           4.0 sec
 Storage for integrals:        5889086
 Remaining memory:           *********

 Core energy:               0.00000000
 
 MRCC Input:
     4     0     0     0     3     0     0     1     0     0     0     1     1     0     0     7     0     0   0.000     0   64000
  ex.lev,nsing,ntrip, rest,method,dens,conver,symm, diag, CS ,spatial, HF, ndoub,nacto,nactv, tol, maxex, sacc, freq,  dboc,   mem
  2  2  1  0  0  0  0  0  0  0  0  0  0  0  0  0  0  0  0  0  0  0  2  0  0  0  0  0  0  0  0  0  0  0  2  0  0  0  0  0  0  0  0  0  0  0  0  0  0  0  0  0  0  0  0  2  0  0  0  0  0  0  0  0  0  0  0  0  0  0  0  0  0  0  0  0  0  0  0  0  0  0  0  0  0  0  0  0
 MRCC Input end
 Variable memory released
 MRCC now being run, temporary output in /global/cscratch1/sd/aannabe/mrccdir/mrcc_35760/mrcc.out
 **********************************************************************
                          MRCC program system
 **********************************************************************

                              Written by
  Mihaly Kallay, Zoltan Rolik, Jozsef Csontos, Peter Nagy, Gyula Samu,
      David Mester, Jozsef Csoka, Bernat Szabo, Istvan Ladjanszki,
       Lorant Szegedy, Bence Ladoczki, Klara Petrov, Mate Farkas,
                    Pal D. Mezei, and Bence Hegely

        Department of Physical Chemistry and Materials Science
            Budapest University of Technology and Economics
                  Budapest P.O.Box 91, H-1521 Hungary

                              www.mrcc.hu

                       Release date: May 23, 2018

 ************************ 2018-10-28 20:58:26 *************************
 Executing goldstone...

 Generation of CC equations in terms of H and T...
 Generation of antisymmetrized Goldstone diagrams...
 Number of diagrams in T^1 equations:    15
 Number of diagrams in T^2 equations:    38
 Number of diagrams in T^3 equations:    49
 Number of diagrams in T^4 equations:     5
 Translation of diagrams to factorized equations...
 Optimizing intermediate calculation...
 Number of floating-point operations per iteration step:   1.1954E+12
 Probable CPU time per iteration step (hours):     11.95
 Required memory (Mbytes):    9369.9
 Number of intermediates:                                  79
 Number of intermediates to be stored:                     32
 Length of intermediate file (Mbytes):     152.8

 ************************ 2018-10-28 20:58:27 *************************
 Executing xmrcc...

 **********************************************************************
 CC(3)(4) calculation


 Allocation of9369.9 Mbytes of memory...
 Number of spinorbitals:                   176
 Number of alpha electrons:                        6
 Number of beta electrons:                         5
 Spin multiplicity:                     2
 z-component of spin:  0.5
 Spatial symmetry:                      1
 Convergence criterion:  1.0E-07
 Construction of occupation graphs...
 Number of                     0 -fold excitations:                      1
 Number of                     1 -fold excitations:                    163
 Number of                     2 -fold excitations:                  37912
 Number of                     3 -fold excitations:                5033760
 Total number of configurations:                5071836
 Calculation of coupling coefficients...
 Length of intermediate file (Mbytes):     114.6

 ======================================================================

 Spin case  1   Alpha:  0   Beta:  4
 Number of excitations:                1149870
 Spin case  2   Alpha:  1   Beta:  3
 Number of excitations:               56487678
 Spin case  3   Alpha:  2   Beta:  2
 Number of excitations:              211964838
 Spin case  4   Alpha:  3   Beta:  1
 Number of excitations:               91881360
 Spin case  5   Alpha:  4   Beta:  0
 Number of excitations:                3281430
 Number of                     4 -fold excitations:              364765176

 Memory requirements /Mbyte/:
               Minimal        Optimal
 Real*8:        205.1386       457.6533
 Integer:        49.7662
 Total:         254.9048       507.4195


 ************************ 2018-10-28 20:58:34 *************************
 Executing mrcc...

 **********************************************************************
 CCSDT(Q) calculation


 Allocation of  457.7 Mbytes of memory...
 Number of spinorbitals: 176
 Number of alpha electrons:  6
 Number of beta  electrons:  5
 Spin multiplicity: 2
 z-component of spin:  0.5
 Spatial symmetry: 1
 Convergence criterion:  1.0E-07
 Construction of occupation graphs...
 Number of 0-fold excitations: 1
 Number of 1-fold excitations: 163
 Number of 2-fold excitations: 37912
 Number of 3-fold excitations: 5033760
 Total number of determinants: 5071836
 Calculation of coupling coefficients...
 Initial cluster amplitudes are generated.
 Length of intermediate file (Mbytes):     114.6
 Reading integral list from unit 55...
 Sorting integrals...
 Sorting integrals...
 Sorting integrals...
 Sorting integrals...
 Energy of reference determinant [au]:     -46.121845149309
 Calculation of MP denominators...

 Starting CC iteration...
 ======================================================================
 Norm of residual vector:     1.11626659
 CPU time [min]:     1.426                   Wall time [min]:     1.447

 Iteration  1  CC energy:   -46.40901868  Energy decrease:   0.28717353
 ======================================================================
 Norm of residual vector:     0.25146005
 CPU time [min]:     2.575                   Wall time [min]:     2.612

 Iteration  2  CC energy:   -46.42184877  Energy decrease:   0.01283009
 ======================================================================
 Norm of residual vector:     0.07076295
 CPU time [min]:     3.806                   Wall time [min]:     3.854

 Iteration  3  CC energy:   -46.43999176  Energy decrease:   0.01814299
 ======================================================================
 Norm of residual vector:     0.02385764
 CPU time [min]:     5.043                   Wall time [min]:     5.101

 Iteration  4  CC energy:   -46.44163783  Energy decrease:   0.00164607
 ======================================================================
 Norm of residual vector:     0.01166488
 CPU time [min]:     6.246                   Wall time [min]:     6.313

 Iteration  5  CC energy:   -46.44061747  Energy decrease:   0.00102036
 ======================================================================
 Norm of residual vector:     0.00623962
 CPU time [min]:     7.462                   Wall time [min]:     7.596

 Iteration  6  CC energy:   -46.44089228  Energy decrease:   0.00027480
 ======================================================================
 Norm of residual vector:     0.00409407
 CPU time [min]:     8.728                   Wall time [min]:     8.879

 Iteration  7  CC energy:   -46.44113981  Energy decrease:   0.00024754
 ======================================================================
 Norm of residual vector:     0.00290039
 CPU time [min]:    10.023                   Wall time [min]:    10.184

 Iteration  8  CC energy:   -46.44113200  Energy decrease:   0.00000781
 ======================================================================
 Norm of residual vector:     0.00204551
 CPU time [min]:    11.338                   Wall time [min]:    11.560

 Iteration  9  CC energy:   -46.44119992  Energy decrease:   0.00006792
 ======================================================================
 Norm of residual vector:     0.00135847
 CPU time [min]:    12.642                   Wall time [min]:    12.960

 Iteration 10  CC energy:   -46.44119694  Energy decrease:   0.00000298
 ======================================================================
 Norm of residual vector:     0.00073988
 CPU time [min]:    13.955                   Wall time [min]:    14.299

 Iteration 11  CC energy:   -46.44119787  Energy decrease:   0.00000092
 ======================================================================
 Norm of residual vector:     0.00044658
 CPU time [min]:    15.267                   Wall time [min]:    15.619

 Iteration 12  CC energy:   -46.44120762  Energy decrease:   0.00000975
 ======================================================================
 Norm of residual vector:     0.00030869
 CPU time [min]:    16.585                   Wall time [min]:    16.948

 Iteration 13  CC energy:   -46.44120948  Energy decrease:   0.00000186
 ======================================================================
 Norm of residual vector:     0.00021531
 CPU time [min]:    17.915                   Wall time [min]:    18.671

 Iteration 14  CC energy:   -46.44121113  Energy decrease:   0.00000165
 ======================================================================
 Norm of residual vector:     0.00014471
 CPU time [min]:    19.258                   Wall time [min]:    20.758

 Iteration 15  CC energy:   -46.44121331  Energy decrease:   0.00000218
 ======================================================================
 Norm of residual vector:     0.00009462
 CPU time [min]:    20.614                   Wall time [min]:    23.021

 Iteration 16  CC energy:   -46.44121382  Energy decrease:   0.00000051
 ======================================================================
 Norm of residual vector:     0.00006064
 CPU time [min]:    21.983                   Wall time [min]:    25.339

 Iteration 17  CC energy:   -46.44121324  Energy decrease:   0.00000058
 ======================================================================
 Norm of residual vector:     0.00003806
 CPU time [min]:    23.359                   Wall time [min]:    27.672

 Iteration 18  CC energy:   -46.44121291  Energy decrease:   0.00000033
 ======================================================================
 Norm of residual vector:     0.00002470
 CPU time [min]:    24.742                   Wall time [min]:    31.107

 Iteration 19  CC energy:   -46.44121358  Energy decrease:   0.00000067
 ======================================================================
 Norm of residual vector:     0.00001403
 CPU time [min]:    26.137                   Wall time [min]:    33.662

 Iteration 20  CC energy:   -46.44121366  Energy decrease:   0.00000008
 ======================================================================
 Norm of residual vector:     0.00000777
 CPU time [min]:    27.538                   Wall time [min]:    36.119

 Iteration 21  CC energy:   -46.44121335  Energy decrease:   0.00000031
 ======================================================================
 Norm of residual vector:     0.00000405
 CPU time [min]:    28.940                   Wall time [min]:    38.816

 Iteration 22  CC energy:   -46.44121343  Energy decrease:   0.00000008
 ======================================================================
 Norm of residual vector:     0.00000222
 CPU time [min]:    30.348                   Wall time [min]:    41.619

 Iteration 23  CC energy:   -46.44121349  Energy decrease:   0.00000006
 ======================================================================
 Norm of residual vector:     0.00000118
 CPU time [min]:    31.736                   Wall time [min]:    45.040

 Iteration 24  CC energy:   -46.44121342  Energy decrease:   0.00000007
 ======================================================================
 Norm of residual vector:     0.00000064
 CPU time [min]:    33.214                   Wall time [min]:    48.707

 Iteration 25  CC energy:   -46.44121344  Energy decrease:   0.00000002
 ======================================================================
 Norm of residual vector:     0.00000033
 CPU time [min]:    34.657                   Wall time [min]:    51.447

 Iteration 26  CC energy:   -46.44121345  Energy decrease:   0.00000001
 ======================================================================
 Norm of residual vector:     0.00000017
 CPU time [min]:    36.097                   Wall time [min]:    54.593

 Iteration 27  CC energy:   -46.44121344  Energy decrease:   0.00000001
 ======================================================================
 Norm of residual vector:     0.00000008
 CPU time [min]:    37.262                   Wall time [min]:    57.212

 Iteration 28  CC energy:   -46.44121344  Energy decrease:   3.3813E-10
 ======================================================================

 Iteration has converged in 28 steps.

 Final results:
 Total CCSDT energy [au]:            -46.441213442981
 Total MP2 energy [au]:              -46.409018684304

 Perturbative corrections are calculated...
 ======================================================================
 Spin case  1   Alpha:  0   Beta:  4
 Number of excitations:        1149870
 CPU time [min]:    41.461                   Wall time [min]:    61.516
 ======================================================================
 Spin case  2   Alpha:  1   Beta:  3
 Number of excitations:        56487678
 CPU time [min]:    98.893                   Wall time [min]:   118.965
 ======================================================================
 Spin case  3   Alpha:  2   Beta:  2
 Number of excitations:        211964838
 CPU time [min]:   224.162                   Wall time [min]:   244.259
 ======================================================================
 Spin case  4   Alpha:  3   Beta:  1
 Number of excitations:        91881360
 CPU time [min]:   291.303                   Wall time [min]:   311.420
 ======================================================================
 Spin case  5   Alpha:  4   Beta:  0
 Number of excitations:        3281430
 CPU time [min]:   296.449                   Wall time [min]:   316.597
 ======================================================================
 Number of 4-fold excitations: 364765176
 CPU time [min]:   296.449                   Wall time [min]:   316.599

 Total CCSDT[Q] energy [au]:         -46.441545385120
 Total CCSDT(Q) energy [au]:         -46.441956135274

 ************************ 2018-10-29 02:15:10 *************************
                      Normal termination of mrcc.
 **********************************************************************
 !CCSDT STATE 1.1 Energy              -46.441213442981
 !MP2 STATE 1.1 Energy                -46.409018684304
 !CCSDT[Q] STATE 1.1 Energy           -46.441545385120
 !CCSDT(Q) STATE 1.1 Energy           -46.441956135274
 
 CPU-time for MRCC:          17786.9 sec
 Elapsed-time for MRCC:      19011.1 sec

 Variable memory set to 8000000000 words,  buffer space   230000 words



 **********************************************************************************************************************************
 DATASETS  * FILE   NREC   LENGTH (MB)   RECORD NAMES
              1      20       23.46       500      610      700      900      950      970     1000      129      960     1100   
                                          VAR    BASINP    GEOM    SYMINP    ZMAT    AOBASIS   BASIS     P2S    ABASIS      S 
                                         1400     1410     1420     1200     1210     1080     1600     1650     1300     1700   
                                         EKIN       V       ECP      H0       H01     AOSYM     SMH    MOLCAS    ERIS     OPER   

              2       5        5.35       700     1000      520     2100     2200   
                                         GEOM     BASIS   MCVARS     RHF      UHF  

 PROGRAMS   *        TOTAL      MRCC       UHF        HF       INT
 CPU TIMES  *     17807.46  17804.14      0.02      0.13      3.01
 REAL TIME  *     19117.49 SEC
 DISK USED  *        39.80 MB      
 **********************************************************************************************************************************
 SETTING POSTHF(I)      =       -46.44195614  AU                              
                                                                                                                                                                                                                                                                

        SCF            POSTHF        EKIN          POT
    -46.12184515   -46.44195614   18.79196680   -9.37425313
                                                  

 CCSDT(Q)/USERDEF energy=    -46.441956135274

        CCSDT(Q)        UHF-SCF         HF-SCF  
    -46.44195614    -46.12184515    -46.12184515
 **********************************************************************************************************************************
 Variable memory released
