----- GAMESS execution script 'rungms' -----
This job is running on host gwang18-Lenovo-Y50-70
under operating system Linux at Mon Sep 17 20:15:16 EDT 2018
Available scratch disk space (Kbyte units) at beginning of the job is
Filesystem     1K-blocks     Used Available Use% Mounted on
/dev/sda7      411134224 61374700 328852056  16% /
GAMESS temporary binary files will be written to /home/gwang18/research/qwalk/ecpcorrelation/c/hfdiff_basis/dz
GAMESS supplementary output files will be written to /home/gwang18/research/qwalk/ecpcorrelation/c/hfdiff_basis/dz
Copying input file c.inp to your run's scratch directory...
cp c.inp /home/gwang18/research/qwalk/ecpcorrelation/c/hfdiff_basis/dz/c.F05
unset echo
/home/gwang18/gamess/ddikick.x /home/gwang18/gamess/gamess.00.x c -ddi 1 1 gwang18-Lenovo-Y50-70 -scr /home/gwang18/research/qwalk/ecpcorrelation/c/hfdiff_basis/dz

 Distributed Data Interface kickoff program.
 Initiating 1 compute processes on 1 nodes to run the following command:
 /home/gwang18/gamess/gamess.00.x c 

          ******************************************************
          *         GAMESS VERSION =  5 DEC 2014 (R1)          *
          *             FROM IOWA STATE UNIVERSITY             *
          * M.W.SCHMIDT, K.K.BALDRIDGE, J.A.BOATZ, S.T.ELBERT, *
          *   M.S.GORDON, J.H.JENSEN, S.KOSEKI, N.MATSUNAGA,   *
          *          K.A.NGUYEN, S.J.SU, T.L.WINDUS,           *
          *       TOGETHER WITH M.DUPUIS, J.A.MONTGOMERY       *
          *         J.COMPUT.CHEM.  14, 1347-1363(1993)        *
          **************** 64 BIT LINUX VERSION ****************

  SINCE 1993, STUDENTS AND POSTDOCS WORKING AT IOWA STATE UNIVERSITY
  AND ALSO IN THEIR VARIOUS JOBS AFTER LEAVING ISU HAVE MADE IMPORTANT
  CONTRIBUTIONS TO THE CODE:
     IVANA ADAMOVIC, CHRISTINE AIKENS, YURI ALEXEEV, POOJA ARORA,
     ANDREY ASADCHEV, ROB BELL, PRADIPTA BANDYOPADHYAY, JONATHAN BENTZ,
     BRETT BODE, KURT BRORSEN, CALEB CARLIN, GALINA CHABAN, WEI CHEN,
     CHEOL HO CHOI, PAUL DAY, ALBERT DEFUSCO, NUWAN DESILVA, TIM DUDLEY,
     DMITRI FEDOROV, GRAHAM FLETCHER, MARK FREITAG, KURT GLAESEMANN,
     DAN KEMP, GRANT MERRILL, NORIYUKI MINEZAWA, JONATHAN MULLIN,
     TAKESHI NAGATA, SEAN NEDD, HEATHER NETZLOFF, BOSILJKA NJEGIC, RYAN OLSON,
     MIKE PAK, SPENCER PRUITT, LUKE ROSKOP, JIM SHOEMAKER, LYUDMILA SLIPCHENKO,
     TONY SMITH, SAROM SOK, JIE SONG, TETSUYA TAKETSUGU, SIMON WEBB,
     PENG XU, SOOHAENG YOO, FEDERICO ZAHARIEV

  ADDITIONAL CODE HAS BEEN PROVIDED BY COLLABORATORS IN OTHER GROUPS:
     IOWA STATE UNIVERSITY:
          JOE IVANIC, AARON WEST, LAIMUTIS BYTAUTAS, KLAUS RUEDENBERG
     UNIVERSITY OF TOKYO: KIMIHIKO HIRAO, TAKAHITO NAKAJIMA,
          TAKAO TSUNEDA, MUNEAKI KAMIYA, SUSUMU YANAGISAWA,
          KIYOSHI YAGI, MAHITO CHIBA, SEIKEN TOKURA, NAOAKI KAWAKAMI
     UNIVERSITY OF AARHUS: FRANK JENSEN
     UNIVERSITY OF IOWA: VISVALDAS KAIRYS, HUI LI
     NATIONAL INST. OF STANDARDS AND TECHNOLOGY: WALT STEVENS, DAVID GARMER
     UNIVERSITY OF PISA: BENEDETTA MENNUCCI, JACOPO TOMASI
     UNIVERSITY OF MEMPHIS: HENRY KURTZ, PRAKASHAN KORAMBATH
     UNIVERSITY OF ALBERTA: TOBY ZENG, MARIUSZ KLOBUKOWSKI
     UNIVERSITY OF NEW ENGLAND: MARK SPACKMAN
     MIE UNIVERSITY: HIROAKI UMEDA
     NAT. INST. OF ADVANCED INDUSTRIAL SCIENCE AND TECHNOLOGY: KAZUO KITAURA
     MICHIGAN STATE UNIVERSITY:
          KAROL KOWALSKI, MARTA WLOCH, JEFFREY GOUR, JESSE LUTZ,
          WEI LI, PIOTR PIECUCH
     UNIVERSITY OF SILESIA: MONIKA MUSIAL, STANISLAW KUCHARSKI
     FACULTES UNIVERSITAIRES NOTRE-DAME DE LA PAIX:
          OLIVIER QUINET, BENOIT CHAMPAGNE
     UNIVERSITY OF CALIFORNIA - SANTA BARBARA: BERNARD KIRTMAN
     INSTITUTE FOR MOLECULAR SCIENCE:
          KAZUYA ISHIMURA, MICHIO KATOUDA, AND SHIGERU NAGASE
     UNIVERSITY OF NOTRE DAME: ANNA POMOGAEVA, DAN CHIPMAN
     KYUSHU UNIVERSITY:
          HARUYUKI NAKANO,
          FENG LONG GU, JACEK KORCHOWIEC, MARCIN MAKOWSKI, AND YURIKO AOKI,
          HIROTOSHI MORI AND EISAKU MIYOSHI
     PENNSYLVANIA STATE UNIVERSITY:
          TZVETELIN IORDANOV, CHET SWALINA, JONATHAN SKONE,
          SHARON HAMMES-SCHIFFER
     WASEDA UNIVERSITY:
          MASATO KOBAYASHI, TOMOKO AKAMA, TSUGUKI TOUMA,
          TAKESHI YOSHIKAWA, YASUHIRO IKABATA, HIROMI NAKAI
     NANJING UNIVERSITY: SHUHUA LI
     UNIVERSITY OF NEBRASKA:
          PEIFENG SU, DEJUN SI, NANDUN THELLAMUREGE, YALI WANG, HUI LI
     UNIVERSITY OF ZURICH: ROBERTO PEVERATI, KIM BALDRIDGE
     N. COPERNICUS UNIVERSITY AND JACKSON STATE UNIVERSITY:
          MARIA BARYSZ
     UNIVERSITY OF COPENHAGEN: CASPER STEINMANN
     TOKYO INSTITUTE OF TECHNOLOGY: HIROYA NAKATA
     NAGOYA UNIVERSITY: YOSHIO NISHIMOTO, STEPHAN IRLE

 EXECUTION OF GAMESS BEGUN Mon Sep 17 20:15:16 2018

            ECHO OF THE FIRST FEW INPUT CARDS -
 INPUT CARD> $CONTRL                                                                        
 INPUT CARD>     SCFTYP=ROHF                                                                
 INPUT CARD>     MULT=3                                                                     
 INPUT CARD>     ICHARG=0                                                                   
 INPUT CARD>     RUNTYP=ENERGY                                                              
 INPUT CARD>     MAXIT=150                                                                  
 INPUT CARD>     PP=READ                                                                    
 INPUT CARD> $END                                                                           
 INPUT CARD>                                                                                
 INPUT CARD> $CONTRL                                                                        
 INPUT CARD>     ISPHER=1                                                                   
 INPUT CARD> $END                                                                           
 INPUT CARD>                                                                                
 INPUT CARD> $SYSTEM                                                                        
 INPUT CARD>     KDIAG=3                                                                    
 INPUT CARD>     mwords=125                                                                 
 INPUT CARD> $END                                                                           
 INPUT CARD>                                                                                
 INPUT CARD> $GUESS                                                                         
 INPUT CARD>    GUESS=HUCKEL                                                                
 INPUT CARD> $END                                                                           
 INPUT CARD>                                                                                
 INPUT CARD> $DATA                                                                          
 INPUT CARD>                                                                                
 INPUT CARD>C1                                                                              
 INPUT CARD>C 6 0. 0. 0.                                                                    
 INPUT CARD>s 9                                                                             
 INPUT CARD>1 13.073594  0.0051583                                                          
 INPUT CARD>2 6.541187   0.0603424                                                          
 INPUT CARD>3 4.573411   -0.1978471                                                         
 INPUT CARD>4 1.637494   -0.0810340                                                         
 INPUT CARD>5 0.819297   0.2321726                                                          
 INPUT CARD>6 0.409924   0.2914643                                                          
 INPUT CARD>7 0.231300   0.4336405                                                          
 INPUT CARD>8 0.102619   0.2131940                                                          
 INPUT CARD>9 0.051344   0.0049848                                                          
 INPUT CARD>s 1                                                                             
 INPUT CARD>1 0.127852   1.000000                                                           
 INPUT CARD>s 1                                                                             
 INPUT CARD>1 0.051141   1.000000                                                           
 INPUT CARD>p 9                                                                             
 INPUT CARD>1 9.934169  0.0209076                                                           
 INPUT CARD>2 3.886955  0.0572698                                                           
 INPUT CARD>3 1.871016  0.1122682                                                           
 INPUT CARD>4 0.935757  0.2130082                                                           
 INPUT CARD>5 0.468003  0.2835815                                                           
 INPUT CARD>6 0.239473  0.3011207                                                           
 INPUT CARD>7 0.117063  0.2016934                                                           
 INPUT CARD>8 0.058547  0.0453575                                                           
 INPUT CARD>9 0.029281  0.0029775                                                           
  125000000 WORDS OF MEMORY AVAILABLE


     RUN TITLE
     ---------
                                                                                 

 THE POINT GROUP OF THE MOLECULE IS C1      
 THE ORDER OF THE PRINCIPAL AXIS IS     0

 ATOM      ATOMIC                      COORDINATES (BOHR)
           CHARGE         X                   Y                   Z
 C           6.0     0.0000000000        0.0000000000        0.0000000000

          INTERNUCLEAR DISTANCES (ANGS.)
          ------------------------------

                1 C     

   1 C       0.0000000  

  * ... LESS THAN  3.000


     ATOMIC BASIS SET
     ----------------
 THE CONTRACTED PRIMITIVE FUNCTIONS HAVE BEEN UNNORMALIZED
 THE CONTRACTED BASIS FUNCTIONS ARE NOW NORMALIZED TO UNITY

  SHELL TYPE  PRIMITIVE        EXPONENT          CONTRACTION COEFFICIENT(S)

 C         

      1   S       1            13.0735940    0.005158299799
      1   S       2             6.5411870    0.060342397643
      1   S       3             4.5734110   -0.197847092272
      1   S       4             1.6374940   -0.081033996835
      1   S       5             0.8192970    0.232172590931
      1   S       6             0.4099240    0.291464288615
      1   S       7             0.2313000    0.433640483061
      1   S       8             0.1026190    0.213193991672
      1   S       9             0.0513440    0.004984799805

      2   S      10             0.1278520    1.000000000000

      3   S      11             0.0511410    1.000000000000

      4   P      12             9.9341690    0.020907599209
      4   P      13             3.8869550    0.057269797835
      4   P      14             1.8710160    0.112268195755
      4   P      15             0.9357570    0.213008191946
      4   P      16             0.4680030    0.283581489278
      4   P      17             0.2394730    0.301120688615
      4   P      18             0.1170630    0.201693392374
      4   P      19             0.0585470    0.045357498285
      4   P      20             0.0292810    0.002977499887

      5   P      21             0.1491610    1.000000000000

      6   P      22             0.0596640    1.000000000000

      7   D      23             0.5611600    1.000000000000

      8   D      24             0.2244640    1.000000000000

 TOTAL NUMBER OF BASIS SET SHELLS             =    8
 NUMBER OF CARTESIAN GAUSSIAN BASIS FUNCTIONS =   24
 NOTE: THIS RUN WILL RESTRICT THE MO VARIATION SPACE TO SPHERICAL HARMONICS.
 THE NUMBER OF ORBITALS KEPT IN THE VARIATIONAL SPACE WILL BE PRINTED LATER.
 NUMBER OF ELECTRONS                          =    6
 CHARGE OF MOLECULE                           =    0
 SPIN MULTIPLICITY                            =    3
 NUMBER OF OCCUPIED ORBITALS (ALPHA)          =    4
 NUMBER OF OCCUPIED ORBITALS (BETA )          =    2
 TOTAL NUMBER OF ATOMS                        =    1
 THE NUCLEAR REPULSION ENERGY IS        0.0000000000
 NOTE THIS RUN IS USING CORE POTENTIALS, AND THE NUMBER OF ELECTRONS,
 OCCUPIED ORBITALS, AND NUCLEAR REPULSION ENERGY WILL BE ADJUSTED BELOW
 AFTER REMOVAL OF THE CORE CHARGES.

 THIS MOLECULE IS RECOGNIZED AS BEING LINEAR,
 ORBITAL LZ DEGENERACY TOLERANCE ETOLLZ= 1.00E-06

     $CONTRL OPTIONS
     ---------------
 SCFTYP=ROHF         RUNTYP=ENERGY       EXETYP=RUN     
 MPLEVL=       0     CITYP =NONE         CCTYP =NONE         VBTYP =NONE    
 DFTTYP=NONE         TDDFT =NONE    
 MULT  =       3     ICHARG=       0     NZVAR =       0     COORD =UNIQUE  
 PP    =READ         RELWFN=NONE         LOCAL =NONE         NUMGRD=       F
 ISPHER=       1     NOSYM =       0     MAXIT =     150     UNITS =ANGS    
 PLTORB=       F     MOLPLT=       F     AIMPAC=       F     FRIEND=        
 NPRINT=       7     IREST =       0     GEOM  =INPUT   
 NORMF =       0     NORMP =       0     ITOL  =      20     ICUT  =       9
 INTTYP=BEST         GRDTYP=BEST         QMTTOL= 1.0E-06

     $SYSTEM OPTIONS
     ---------------
  REPLICATED MEMORY=   125000000 WORDS (ON EVERY NODE).
 DISTRIBUTED MEMDDI=           0 MILLION WORDS IN AGGREGATE,
 MEMDDI DISTRIBUTED OVER   1 PROCESSORS IS           0 WORDS/PROCESSOR.
 TOTAL MEMORY REQUESTED ON EACH PROCESSOR=   125000000 WORDS.
 TIMLIM=      525600.00 MINUTES, OR     365.0 DAYS.
 PARALL= F  BALTYP=  DLB     KDIAG=    3  COREFL= F
 MXSEQ2=     300 MXSEQ3=     150  mem10=         0

          --------------
          ECP POTENTIALS
          --------------

 PARAMETERS FOR "C-QMC   " ON ATOM    1 WITH ZCORE   2 AND LMAX  1 ARE
 FOR L= 1      COEFF    N           ZETA
    1        4.00000    1       14.43502
    2       57.74008    3        8.39889
    3      -25.81955    2        7.38188
 FOR L= 0      COEFF    N           ZETA
    1       52.13345    2        7.76079

 THE ECP RUN REMOVES    2 CORE ELECTRONS, AND THE SAME NUMBER OF PROTONS.
 NUMBER OF ELECTRONS KEPT IN THE CALCULATION IS =    4
 NUMBER OF OCCUPIED ORBITALS (ALPHA) KEPT IS    =    3
 NUMBER OF OCCUPIED ORBITALS (BETA ) KEPT IS    =    1
 THE ADJUSTED NUCLEAR REPULSION ENERGY=        0.0000000000
          ECP ANGULAR INTS.........     0.00 SECONDS

          ----------------
          PROPERTIES INPUT
          ----------------

     MOMENTS            FIELD           POTENTIAL          DENSITY
 IEMOM =       1   IEFLD =       0   IEPOT =       0   IEDEN =       0
 WHERE =COMASS     WHERE =NUCLEI     WHERE =NUCLEI     WHERE =NUCLEI  
 OUTPUT=BOTH       OUTPUT=BOTH       OUTPUT=BOTH       OUTPUT=BOTH    
 IEMINT=       0   IEFINT=       0                     IEDINT=       0
                                                       MORB  =       0
          EXTRAPOLATION IN EFFECT
          SOSCF IN EFFECT
 ORBITAL PRINTING OPTION: NPREO=     1    24     2     1

     -------------------------------
     INTEGRAL TRANSFORMATION OPTIONS
     -------------------------------
     NWORD  =            0
     CUTOFF = 1.0E-09     MPTRAN =       0
     DIRTRF =       F     AOINTS =DUP     

          ----------------------
          INTEGRAL INPUT OPTIONS
          ----------------------
 NOPK  =       1 NORDER=       0 SCHWRZ=       F

     ------------------------------------------
     THE POINT GROUP IS C1 , NAXIS= 0, ORDER= 1
     ------------------------------------------

 -- VARIATIONAL SPACE WILL BE RESTRICTED TO PURE SPHERICAL HARMONICS ONLY --
 AFTER EXCLUDING CONTAMINANT COMBINATIONS FROM THE CARTESIAN GAUSSIAN BASIS
 SET, THE NUMBER OF SPHERICAL HARMONICS KEPT IN THE VARIATION SPACE IS   22

     DIMENSIONS OF THE SYMMETRY SUBSPACES ARE
 A   =   22

 ..... DONE SETTING UP THE RUN .....
 STEP CPU TIME =     0.01 TOTAL CPU TIME =        0.0 (    0.0 MIN)
 TOTAL WALL CLOCK TIME=        0.5 SECONDS, CPU UTILIZATION IS   2.08%

          ********************
          1 ELECTRON INTEGRALS
          ********************
 TIME TO DO ORDINARY INTEGRALS=      0.01
 TIME TO DO      ECP INTEGRALS=      0.00
 ...... END OF ONE-ELECTRON INTEGRALS ......
 STEP CPU TIME =     0.01 TOTAL CPU TIME =        0.0 (    0.0 MIN)
 TOTAL WALL CLOCK TIME=        0.5 SECONDS, CPU UTILIZATION IS   4.00%

          -------------
          GUESS OPTIONS
          -------------
          GUESS =HUCKEL            NORB  =       0          NORDER=       0
          MIX   =       F          PRTMO =       F          PUNMO =       F
          TOLZ  = 1.0E-08          TOLE  = 1.0E-05
          SYMDEN=       F          PURIFY=       F

 INITIAL GUESS ORBITALS GENERATED BY HUCKEL   ROUTINE.
 HUCKEL GUESS REQUIRES      5239 WORDS.

 STATISTICS FOR GENERATION OF SYMMETRY ORBITAL -Q- MATRIX
 NUMBER OF CARTESIAN ATOMIC ORBITALS=         24
 NUMBER OF SPHERICAL CONTAMINANTS DROPPED=     2
 NUMBER OF LINEARLY DEPENDENT MOS DROPPED=     0
 TOTAL NUMBER OF MOS IN VARIATION SPACE=      22

 SYMMETRIES FOR INITIAL GUESS ORBITALS FOLLOW.  ALPHA SET(S).
     3 ORBITALS ARE OCCUPIED (    0 CORE ORBITALS).
     1=A        2=A        3=A        4=A        5=A        6=A        7=A   
     8=A        9=A       10=A       11=A       12=A       13=A   

 SYMMETRIES FOR INITIAL GUESS ORBITALS FOLLOW.   BETA SET(S).
     1 ORBITALS ARE OCCUPIED (    0 CORE ORBITALS).
     1=A        2=A        3=A        4=A        5=A        6=A        7=A   
     8=A        9=A       10=A       11=A   
 ...... END OF INITIAL ORBITAL SELECTION ......
 STEP CPU TIME =     0.00 TOTAL CPU TIME =        0.0 (    0.0 MIN)
 TOTAL WALL CLOCK TIME=        0.5 SECONDS, CPU UTILIZATION IS   3.70%

                    ----------------------
                    AO INTEGRAL TECHNOLOGY
                    ----------------------
     S,P,L SHELL ROTATED AXIS INTEGRALS, REPROGRAMMED BY
        KAZUYA ISHIMURA (IMS) AND JOSE SIERRA (SYNSTAR).
     S,P,D,L SHELL ROTATED AXIS INTEGRALS PROGRAMMED BY
        KAZUYA ISHIMURA (INSTITUTE FOR MOLECULAR SCIENCE).
     S,P,D,F,G SHELL TO TOTAL QUARTET ANGULAR MOMENTUM SUM 5,
        ERIC PROGRAM BY GRAHAM FLETCHER (ELORET AND NASA ADVANCED
        SUPERCOMPUTING DIVISION, AMES RESEARCH CENTER).
     S,P,D,F,G,L SHELL GENERAL RYS QUADRATURE PROGRAMMED BY
        MICHEL DUPUIS (PACIFIC NORTHWEST NATIONAL LABORATORY).

          --------------------
          2 ELECTRON INTEGRALS
          --------------------

 THE -PK- OPTION IS OFF, THE INTEGRALS ARE NOT IN SUPERMATRIX FORM.
 STORING   15000 INTEGRALS/RECORD ON DISK, USING 12 BYTES/INTEGRAL.
 TWO ELECTRON INTEGRAL EVALUATION REQUIRES   90432 WORDS OF MEMORY.
 II,JST,KST,LST =  1  1  1  1 NREC =         1 INTLOC =    1
 II,JST,KST,LST =  2  1  1  1 NREC =         1 INTLOC =    2
 II,JST,KST,LST =  3  1  1  1 NREC =         1 INTLOC =    7
 II,JST,KST,LST =  4  1  1  1 NREC =         1 INTLOC =   22
 II,JST,KST,LST =  5  1  1  1 NREC =         1 INTLOC =   67
 II,JST,KST,LST =  6  1  1  1 NREC =         1 INTLOC =  214
 II,JST,KST,LST =  7  1  1  1 NREC =         1 INTLOC =  571
 II,JST,KST,LST =  8  1  1  1 NREC =         1 INTLOC = 2257
 TOTAL NUMBER OF NONZERO TWO-ELECTRON INTEGRALS =                6627
          1 INTEGRAL RECORDS WERE STORED ON DISK FILE  8.
  ...... END OF TWO-ELECTRON INTEGRALS .....
 STEP CPU TIME =     0.02 TOTAL CPU TIME =        0.0 (    0.0 MIN)
 TOTAL WALL CLOCK TIME=        0.6 SECONDS, CPU UTILIZATION IS   6.67%

          ---------------------------
                 ROHF SCF CALCULATION
          ---------------------------

     NUCLEAR ENERGY =         0.0000000000
     MAXIT =150     NPUNCH=  2     MULT=  3
     EXTRAP=T  DAMP=F  SHIFT=F  RSTRCT=F  DIIS=F  SOSCF=T
     DENSITY MATRIX CONV=  1.00E-05
     ROHF CANONICALIZATION PARAMETERS
             C-C     O-O     V-V
     ALPHA -0.5000  0.5000  1.5000
     BETA   1.5000  0.5000 -0.5000
     SOSCF WILL OPTIMIZE      59 ORBITAL ROTATION ANGLES. SOGTOL= 2.500E-01
     MEMORY REQUIRED FOR UHF/ROHF ITERS=     35858 WORDS.

 ITER EX      TOTAL ENERGY        E CHANGE  DENSITY CHANGE    ORB. GRAD 
   1  0       -5.2884998596    -5.2884998596   0.748845472   0.000000000
          ---------------START SECOND ORDER SCF---------------
   2  1       -5.3054376835    -0.0169378238   0.307621613   0.040805555
   3  2       -5.3078658244    -0.0024281410   0.147505263   0.033965084
   4  3       -5.3142838142    -0.0064179898   0.010110236   0.001710506
   5  4       -5.3143024692    -0.0000186550   0.002084042   0.000376516
   6  5       -5.3143031398    -0.0000006706   0.000195292   0.000034540
   7  6       -5.3143031471    -0.0000000073   0.000015126   0.000003457
   8  7       -5.3143031471    -0.0000000001   0.000000942   0.000000148
   9  8       -5.3143031471    -0.0000000000   0.000000000   0.000000000

          -----------------
          DENSITY CONVERGED
          -----------------
     TIME TO FORM FOCK OPERATORS=       0.0 SECONDS (       0.0 SEC/ITER)
     TIME TO SOLVE SCF EQUATIONS=       0.0 SECONDS (       0.0 SEC/ITER)

 FINAL ROHF ENERGY IS       -5.3143031471 AFTER   9 ITERATIONS

          --------------------
          SPIN SZ   =    1.000
          S-SQUARED =    2.000
          --------------------

 LZ VALUE ANALYSIS FOR THE MOS
 ----------------------------------------
 MO     1 (    1) HAS LZ(WEIGHT)= 0.00(100.0%) 
 MO     2 (    2) HAS LZ(WEIGHT)=-1.00( 50.0%)  1.00( 50.0%) 
 MO     3 (    2) HAS LZ(WEIGHT)=-1.00( 50.0%)  1.00( 50.0%) 
 MO     4 (    3) HAS LZ(WEIGHT)= 0.00(100.0%) 
 MO     5 (    4) HAS LZ(WEIGHT)= 0.00(100.0%) 
 MO     6 (    5) HAS LZ(WEIGHT)=-1.00( 50.0%)  1.00( 50.0%) 
 MO     7 (    5) HAS LZ(WEIGHT)=-1.00( 50.0%)  1.00( 50.0%) 
 MO     8 (    6) HAS LZ(WEIGHT)= 0.00(100.0%) 
 MO     9 (    7) HAS LZ(WEIGHT)=-2.00( 50.0%)  2.00( 50.0%) 
 MO    10 (    7) HAS LZ(WEIGHT)=-2.00( 50.0%)  2.00( 50.0%) 
 MO    11 (    8) HAS LZ(WEIGHT)=-1.00( 50.0%)  1.00( 50.0%) 
 MO    12 (    8) HAS LZ(WEIGHT)=-1.00( 50.0%)  1.00( 50.0%) 
 MO    13 (    9) HAS LZ(WEIGHT)= 0.00(100.0%) 
 MO    14 (   10) HAS LZ(WEIGHT)=-1.00( 50.0%)  1.00( 50.0%) 
 MO    15 (   10) HAS LZ(WEIGHT)=-1.00( 50.0%)  1.00( 50.0%) 
 MO    16 (   11) HAS LZ(WEIGHT)= 0.00(100.0%) 
 MO    17 (   12) HAS LZ(WEIGHT)= 0.00(100.0%) 
 MO    18 (   13) HAS LZ(WEIGHT)=-2.00( 50.0%)  2.00( 50.0%) 
 MO    19 (   13) HAS LZ(WEIGHT)=-2.00( 50.0%)  2.00( 50.0%) 
 MO    20 (   14) HAS LZ(WEIGHT)=-1.00( 50.0%)  1.00( 50.0%) 
 MO    21 (   14) HAS LZ(WEIGHT)=-1.00( 50.0%)  1.00( 50.0%) 
 MO    22 (   15) HAS LZ(WEIGHT)= 0.00(100.0%) 

          ------------
          EIGENVECTORS
          ------------

                      1          2          3          4          5
                   -0.4679    -0.1318    -0.1318    -0.0062     0.1028
                     A          A          A          A          A   
    1  C  1  S    1.000004   0.000000   0.000000   0.000000  -0.283341
    2  C  1  S    0.000045   0.000000   0.000000   0.000000  -0.991980
    3  C  1  S   -0.000086   0.000000   0.000000   0.000000   1.758574
    4  C  1  X   -0.000000   0.000000   0.999915   0.000000  -0.000000
    5  C  1  Y   -0.000000   0.999915   0.000000   0.000000  -0.000000
    6  C  1  Z   -0.000000   0.000000   0.000000   0.699080  -0.000000
    7  C  1  X   -0.000000   0.000000   0.000127   0.000000  -0.000000
    8  C  1  Y   -0.000000   0.000127   0.000000   0.000000  -0.000000
    9  C  1  Z   -0.000000   0.000000   0.000000   0.059408  -0.000000
   10  C  1  X   -0.000000   0.000000  -0.000036   0.000000  -0.000000
   11  C  1  Y   -0.000000  -0.000036   0.000000   0.000000  -0.000000
   12  C  1  Z   -0.000000   0.000000   0.000000   0.366936  -0.000000
   13  C  1 XX    0.000318   0.000000   0.000000   0.000000  -0.002794
   14  C  1 YY    0.000318   0.000000   0.000000   0.000000  -0.002794
   15  C  1 ZZ   -0.000637   0.000000   0.000000   0.000000   0.005589
   16  C  1 XY   -0.000000   0.000000   0.000000   0.000000  -0.000000
   17  C  1 XZ   -0.000000   0.000000   0.000000   0.000000  -0.000000
   18  C  1 YZ   -0.000000   0.000000   0.000000   0.000000  -0.000000
   19  C  1 XX    0.002315   0.000000   0.000000   0.000000  -0.001805
   20  C  1 YY    0.002315   0.000000   0.000000   0.000000  -0.001805
   21  C  1 ZZ   -0.004629   0.000000   0.000000   0.000000   0.003610
   22  C  1 XY   -0.000000   0.000000   0.000000   0.000000  -0.000000
   23  C  1 XZ   -0.000000   0.000000   0.000000   0.000000  -0.000000
   24  C  1 YZ   -0.000000   0.000000   0.000000   0.000000  -0.000000

                      6          7          8          9         10
                    0.1516     0.1516     0.1906     0.5648     0.5648
                     A          A          A          A          A   
    1  C  1  S   -0.000000  -0.000000  -0.000000  -0.000000   0.000000
    2  C  1  S   -0.000000  -0.000000  -0.000000  -0.000000   0.000000
    3  C  1  S   -0.000000  -0.000000  -0.000000  -0.000000   0.000000
    4  C  1  X   -0.338509  -0.000000  -0.000000  -0.000000   0.000000
    5  C  1  Y   -0.000000  -0.338509  -0.000000  -0.000000   0.000000
    6  C  1  Z   -0.000000  -0.000000  -0.465437  -0.000000   0.000000
    7  C  1  X   -0.479783  -0.000000  -0.000000  -0.000000   0.000000
    8  C  1  Y   -0.000000  -0.479783  -0.000000  -0.000000   0.000000
    9  C  1  Z   -0.000000  -0.000000  -0.723474  -0.000000   0.000000
   10  C  1  X    1.383710  -0.000000  -0.000000  -0.000000   0.000000
   11  C  1  Y   -0.000000   1.383710  -0.000000  -0.000000   0.000000
   12  C  1  Z   -0.000000  -0.000000   1.407606  -0.000000   0.000000
   13  C  1 XX   -0.000000  -0.000000  -0.000000  -0.000000  -0.064833
   14  C  1 YY   -0.000000  -0.000000  -0.000000  -0.000000   0.064833
   15  C  1 ZZ   -0.000000  -0.000000  -0.000000  -0.000000   0.000000
   16  C  1 XY   -0.000000  -0.000000  -0.000000  -0.074863   0.000000
   17  C  1 XZ   -0.000000  -0.000000  -0.000000  -0.000000   0.000000
   18  C  1 YZ   -0.000000  -0.000000  -0.000000  -0.000000   0.000000
   19  C  1 XX   -0.000000  -0.000000  -0.000000  -0.000000   0.910243
   20  C  1 YY   -0.000000  -0.000000  -0.000000  -0.000000  -0.910243
   21  C  1 ZZ   -0.000000  -0.000000  -0.000000  -0.000000   0.000000
   22  C  1 XY   -0.000000  -0.000000  -0.000000   1.051058   0.000000
   23  C  1 XZ   -0.000000  -0.000000  -0.000000  -0.000000   0.000000
   24  C  1 YZ   -0.000000  -0.000000  -0.000000  -0.000000   0.000000

                     11         12         13         14         15
                    0.5887     0.5887     0.5969     0.7479     0.7479
                     A          A          A          A          A   
    1  C  1  S   -0.000000  -0.000000  -0.007052  -0.000000  -0.000000
    2  C  1  S   -0.000000  -0.000000   0.027858  -0.000000  -0.000000
    3  C  1  S   -0.000000  -0.000000  -0.020043  -0.000000  -0.000000
    4  C  1  X   -0.000000  -0.000000  -0.000000  -1.489338  -0.000000
    5  C  1  Y   -0.000000  -0.000000  -0.000000  -0.000000  -1.489338
    6  C  1  Z   -0.000000  -0.000000  -0.000000  -0.000000  -0.000000
    7  C  1  X   -0.000000  -0.000000  -0.000000   2.409117  -0.000000
    8  C  1  Y   -0.000000  -0.000000  -0.000000  -0.000000   2.409117
    9  C  1  Z   -0.000000  -0.000000  -0.000000  -0.000000  -0.000000
   10  C  1  X   -0.000000  -0.000000  -0.000000  -0.916168  -0.000000
   11  C  1  Y   -0.000000  -0.000000  -0.000000  -0.000000  -0.916168
   12  C  1  Z   -0.000000  -0.000000  -0.000000  -0.000000  -0.000000
   13  C  1 XX   -0.000000  -0.000000   0.060882  -0.000000  -0.000000
   14  C  1 YY   -0.000000  -0.000000   0.060882  -0.000000  -0.000000
   15  C  1 ZZ   -0.000000  -0.000000  -0.121764  -0.000000  -0.000000
   16  C  1 XY   -0.000000  -0.000000  -0.000000  -0.000000  -0.000000
   17  C  1 XZ   -0.000000  -0.109762  -0.000000  -0.000000  -0.000000
   18  C  1 YZ   -0.109762  -0.000000  -0.000000  -0.000000  -0.000000
   19  C  1 XX   -0.000000  -0.000000  -0.540770  -0.000000  -0.000000
   20  C  1 YY   -0.000000  -0.000000  -0.540770  -0.000000  -0.000000
   21  C  1 ZZ   -0.000000  -0.000000   1.081539  -0.000000  -0.000000
   22  C  1 XY   -0.000000  -0.000000  -0.000000  -0.000000  -0.000000
   23  C  1 XZ   -0.000000   1.073883  -0.000000  -0.000000  -0.000000
   24  C  1 YZ    1.073883  -0.000000  -0.000000  -0.000000  -0.000000

                     16         17         18         19         20
                    0.8425     1.5472     1.8275     1.8275     1.8613
                     A          A          A          A          A   
    1  C  1  S   -0.000000  -3.007595   0.000000   0.000000   0.000000
    2  C  1  S   -0.000000   4.430177   0.000000   0.000000   0.000000
    3  C  1  S   -0.000000  -1.592532   0.000000   0.000000   0.000000
    4  C  1  X   -0.000000  -0.000000   0.000000   0.000000   0.000000
    5  C  1  Y   -0.000000  -0.000000   0.000000   0.000000   0.000000
    6  C  1  Z   -1.620864  -0.000000   0.000000   0.000000   0.000000
    7  C  1  X   -0.000000  -0.000000   0.000000   0.000000   0.000000
    8  C  1  Y   -0.000000  -0.000000   0.000000   0.000000   0.000000
    9  C  1  Z    2.346719  -0.000000   0.000000   0.000000   0.000000
   10  C  1  X   -0.000000  -0.000000   0.000000   0.000000   0.000000
   11  C  1  Y   -0.000000  -0.000000   0.000000   0.000000   0.000000
   12  C  1  Z   -0.798762  -0.000000   0.000000   0.000000   0.000000
   13  C  1 XX   -0.000000  -0.024711   0.000000   1.212734   0.000000
   14  C  1 YY   -0.000000  -0.024711   0.000000  -1.212734   0.000000
   15  C  1 ZZ   -0.000000   0.049422   0.000000   0.000000   0.000000
   16  C  1 XY   -0.000000  -0.000000   1.400344   0.000000   0.000000
   17  C  1 XZ   -0.000000  -0.000000   0.000000   0.000000   0.000000
   18  C  1 YZ   -0.000000  -0.000000   0.000000   0.000000   1.398042
   19  C  1 XX   -0.000000   0.018138   0.000000  -0.803980   0.000000
   20  C  1 YY   -0.000000   0.018138   0.000000   0.803980   0.000000
   21  C  1 ZZ   -0.000000  -0.036276   0.000000   0.000000   0.000000
   22  C  1 XY   -0.000000  -0.000000  -0.928356   0.000000   0.000000
   23  C  1 XZ   -0.000000  -0.000000   0.000000   0.000000   0.000000
   24  C  1 YZ   -0.000000  -0.000000   0.000000   0.000000  -0.901856

                     21         22
                    1.8613     1.8735
                     A          A   
    1  C  1  S    0.000000   0.107440
    2  C  1  S    0.000000  -0.150422
    3  C  1  S    0.000000   0.047586
    4  C  1  X    0.000000   0.000000
    5  C  1  Y    0.000000   0.000000
    6  C  1  Z    0.000000   0.000000
    7  C  1  X    0.000000   0.000000
    8  C  1  Y    0.000000   0.000000
    9  C  1  Z    0.000000   0.000000
   10  C  1  X    0.000000   0.000000
   11  C  1  Y    0.000000   0.000000
   12  C  1  Z    0.000000   0.000000
   13  C  1 XX    0.000000  -0.698081
   14  C  1 YY    0.000000  -0.698081
   15  C  1 ZZ    0.000000   1.396162
   16  C  1 XY    0.000000   0.000000
   17  C  1 XZ    1.398042   0.000000
   18  C  1 YZ    0.000000   0.000000
   19  C  1 XX    0.000000   0.445952
   20  C  1 YY    0.000000   0.445952
   21  C  1 ZZ    0.000000  -0.891904
   22  C  1 XY    0.000000   0.000000
   23  C  1 XZ   -0.901856   0.000000
   24  C  1 YZ    0.000000   0.000000
 ...... END OF ROHF CALCULATION ......
 STEP CPU TIME =     0.00 TOTAL CPU TIME =        0.0 (    0.0 MIN)
 TOTAL WALL CLOCK TIME=        0.6 SECONDS, CPU UTILIZATION IS   6.35%

     ----------------------------------------------------------------
     PROPERTY VALUES FOR THE ROHF  SELF-CONSISTENT FIELD WAVEFUNCTION
     ----------------------------------------------------------------

          -----------------
          ENERGY COMPONENTS
          -----------------

         WAVEFUNCTION NORMALIZATION =       1.0000000000

                ONE ELECTRON ENERGY =      -8.3434402010
                TWO ELECTRON ENERGY =       3.0291370539
           NUCLEAR REPULSION ENERGY =       0.0000000000
                                      ------------------
                       TOTAL ENERGY =      -5.3143031471

 ELECTRON-ELECTRON POTENTIAL ENERGY =       3.0291370539
  NUCLEUS-ELECTRON POTENTIAL ENERGY =     -11.7779267318
   NUCLEUS-NUCLEUS POTENTIAL ENERGY =       0.0000000000
                                      ------------------
             TOTAL POTENTIAL ENERGY =      -8.7487896779
               TOTAL KINETIC ENERGY =       3.4344865308
                 VIRIAL RATIO (V/T) =       2.5473355622

          ---------------------------------------
          MULLIKEN AND LOWDIN POPULATION ANALYSES
          ---------------------------------------

     ATOMIC MULLIKEN POPULATION IN EACH MOLECULAR ORBITAL

                      1          2          3

                  2.000000   1.000000   1.000000

    1             2.000000   1.000000   1.000000

          MULLIKEN SPHERICAL HARMONIC POPULATIONS
       ATOM           S       P       D      F      G      H      I    TOTAL
    1 C             1.00    2.00    0.00   0.00   0.00   0.00   0.00    3.00

          MULLIKEN SPHERICAL HARMONIC POPULATIONS
       ATOM           S       P       D      F      G      H      I    TOTAL
    1 C             1.00    0.00    0.00   0.00   0.00   0.00   0.00    1.00

     ATOMIC SPIN POPULATION (ALPHA MINUS BETA)
       ATOM         MULL.POP.                    LOW.POP.
    1 C             2.000000                     2.000000

               ----- POPULATIONS IN EACH AO -----
                             MULLIKEN      LOWDIN
              1  C  1  S      1.99998     0.78664
              2  C  1  S      0.00008     0.35741
              3  C  1  S     -0.00012     0.10188
              4  C  1  X      0.99991     0.76646
              5  C  1  Y      0.99991     0.76646
              6  C  1  Z      0.00000     0.00000
              7  C  1  X      0.00010     0.19452
              8  C  1  Y      0.00010     0.19452
              9  C  1  Z      0.00000     0.00000
             10  C  1  X     -0.00002     0.03903
             11  C  1  Y     -0.00002     0.03903
             12  C  1  Z      0.00000     0.00000
             13  C  1 XX      0.00000     0.20736
             14  C  1 YY      0.00000     0.20736
             15  C  1 ZZ      0.00000     0.20368
             16  C  1 XY      0.00000     0.00000
             17  C  1 XZ      0.00000     0.00000
             18  C  1 YZ      0.00000     0.00000
             19  C  1 XX      0.00005     0.04632
             20  C  1 YY      0.00000     0.04632
             21  C  1 ZZ      0.00000     0.04301
             22  C  1 XY      0.00000     0.00000
             23  C  1 XZ      0.00000     0.00000
             24  C  1 YZ      0.00000     0.00000

          ----- MULLIKEN ATOMIC OVERLAP POPULATIONS -----
          (OFF-DIAGONAL ELEMENTS NEED TO BE MULTIPLIED BY 2)

             1

    1    4.0000000

          TOTAL MULLIKEN AND LOWDIN ATOMIC POPULATIONS
       ATOM         MULL.POP.    CHARGE          LOW.POP.     CHARGE
    1 C             4.000000   -0.000000         4.000000   -0.000000

          MULLIKEN SPHERICAL HARMONIC POPULATIONS
       ATOM           S       P       D      F      G      H      I    TOTAL
    1 C             2.00    2.00    0.00   0.00   0.00   0.00   0.00    4.00

          -------------------------------
          BOND ORDER AND VALENCE ANALYSIS     BOND ORDER THRESHOLD=0.050
          -------------------------------

                   BOND                       BOND                       BOND
  ATOM PAIR DIST  ORDER      ATOM PAIR DIST  ORDER      ATOM PAIR DIST  ORDER

                       TOTAL       BONDED        FREE
      ATOM            VALENCE     VALENCE     VALENCE
    1 C                 2.000       0.000       2.000

          -----------------------------------------
          ATOMIC SPIN DENSITY AT THE NUCLEUS (A.U.)
          -----------------------------------------
                            SPIN DENS    ALPHA DENS     BETA DENS
    1  C            4.0     0.0000000       0.00320       0.00320

          ---------------------
          ELECTROSTATIC MOMENTS
          ---------------------

 POINT   1           X           Y           Z (BOHR)    CHARGE
                 0.000000    0.000000    0.000000       -0.00 (A.U.)
         DX          DY          DZ         /D/  (DEBYE)
     0.000000    0.000000    0.000000    0.000000
 ...... END OF PROPERTY EVALUATION ......
 STEP CPU TIME =     0.01 TOTAL CPU TIME =        0.1 (    0.0 MIN)
 TOTAL WALL CLOCK TIME=        0.7 SECONDS, CPU UTILIZATION IS   7.69%
               580000  WORDS OF DYNAMIC MEMORY USED
 EXECUTION OF GAMESS TERMINATED NORMALLY Mon Sep 17 20:15:17 2018
 DDI: 263640 bytes (0.3 MB / 0 MWords) used by master data server.

 ----------------------------------------
 CPU timing information for all processes
 ========================================
 0: 0.52 + 0.04 = 0.56
 ----------------------------------------
Note: The following floating-point exceptions are signalling: IEEE_UNDERFLOW_FLAG IEEE_DENORMAL
 ddikick.x: exited gracefully.
unset echo
----- accounting info -----
Files used on the master node gwang18-Lenovo-Y50-70 were:
-rw-rw-r-- 1 gwang18 gwang18   10362 Sep 17 20:15 /home/gwang18/research/qwalk/ecpcorrelation/c/hfdiff_basis/dz/c.dat
-rw------- 1 gwang18 gwang18    1036 Sep 17 20:15 /home/gwang18/research/qwalk/ecpcorrelation/c/hfdiff_basis/dz/c.F05
-rw-rw-r-- 1 gwang18 gwang18  180016 Sep 17 20:15 /home/gwang18/research/qwalk/ecpcorrelation/c/hfdiff_basis/dz/c.F08
-rw-rw-r-- 1 gwang18 gwang18 1995920 Sep 17 20:15 /home/gwang18/research/qwalk/ecpcorrelation/c/hfdiff_basis/dz/c.F10
-rw------- 1 gwang18 gwang18    1036 Sep 17 20:15 /home/gwang18/research/qwalk/ecpcorrelation/c/hfdiff_basis/dz/c.inp
-rw-rw-r-- 1 gwang18 gwang18   37445 Sep 17 20:15 /home/gwang18/research/qwalk/ecpcorrelation/c/hfdiff_basis/dz/c.out
ls: No match.
ls: No match.
ls: No match.
Mon Sep 17 20:15:20 EDT 2018
0.0u 0.0s 0:04.00 0.5% 0+0k 456+16io 2pf+0w
