TACC:  Starting up job 2696974 
TACC:  Starting parallel tasks... 
  Input file(s): Cr.log.qmc.in-wfj.xml 

=====================================================
                    QMCPACK 3.5.0 

       (c) Copyright 2003-  QMCPACK developers

                    Please cite:
 J. Kim et al. J. Phys. Cond. Mat. 30 195901 (2018)
      https://doi.org/10.1088/1361-648X/aab9c3

  Git branch: develop
  Last git commit: ca320f40410f5ef17c38db08d5c54848ef64bfe1
  Last git commit date: Tue Dec 18 15:37:17 2018 +0800
  Last git commit subject: Merge pull request #764 from Paul-St-Young/dat-h5
=====================================================
  Global options 

  MPI Nodes             = 1024
  MPI Nodes per group   = 1024
  MPI Group ID          = 0
  OMP 1st level threads = 1
  OMP nested threading disabled or only 1 thread on the 2nd level

  Precision used in this calculation, see definitions in the manual:
  Base precision      = double
  Full precision      = double

  Structure-of-arrays (SoA) optimization enabled

  Input XML = Cr.log.qmc.in-wfj.xml

  Project = Cr.log
  date    = 2018-12-27 16:30:50 CST
  host    = c456-003.stampede2.tacc.utexas.edu

 Random Number
 -------------
  Offset for the random number seeds based on time: 666

  Range of prime numbers to use as seeds over processors and threads = 4993-14431


 Particle Set 
 ------------
  Name: ion0
  All the species have the same mass 1
  Particle set size: 1

 Particle Set 
 ------------
  Name: e
  All the species have the same mass 1
  Particle set size: 14

 Wavefunction setup: 
 ------------------- 
  Name: psi0
  LCAO: SoaAtomicBasisSet<MultiQuintic,1>

  Distance table for similar particles (A-A):
    source/target: e
    Using structure-of-arrays (SoA) data layout
    Distance computations use open boundary conditions in 3D.


  Distance table for dissimilar particles (A-B):
    source: ion0  target: e
    Using structure-of-arrays (SoA) data layout
    Distance computations use open boundary conditions in 3D.

Reading BasisSet from HDF5 file:Cr.log.h5
<input node="atomicBasisSet" name="gaussian" expandYlm="pyscf" angular="spherical" elementType="Cr" normalized="no" type="Numerical" expM="0" />
  AO BasisSet for Cr
   Spherical Harmonics contain (-1)^m factor
   Angular momentum m expanded as -l, ... ,l, with the exception of L=1 (1,-1,0)
   Grid is created by the input paremters in h5
    Using log grid ri = 1e-06 rf = 100 npts = 1001
   R(n,l,m,s) 0 0 0 0
   R(n,l,m,s) 1 0 0 0
   R(n,l,m,s) 2 0 0 0
   R(n,l,m,s) 3 0 0 0
   R(n,l,m,s) 4 0 0 0
   R(n,l,m,s) 5 0 0 0
   R(n,l,m,s) 6 0 0 0
   R(n,l,m,s) 7 0 0 0
   R(n,l,m,s) 8 1 0 0
   R(n,l,m,s) 9 1 0 0
   R(n,l,m,s) 10 1 0 0
   R(n,l,m,s) 11 1 0 0
   R(n,l,m,s) 12 1 0 0
   R(n,l,m,s) 13 1 0 0
   R(n,l,m,s) 14 1 0 0
   R(n,l,m,s) 15 1 0 0
   R(n,l,m,s) 16 2 0 0
   R(n,l,m,s) 17 2 0 0
   R(n,l,m,s) 18 2 0 0
   R(n,l,m,s) 19 2 0 0
   R(n,l,m,s) 20 2 0 0
   R(n,l,m,s) 21 2 0 0
   R(n,l,m,s) 22 2 0 0
   R(n,l,m,s) 23 3 0 0
   R(n,l,m,s) 24 3 0 0
   R(n,l,m,s) 25 3 0 0
   R(n,l,m,s) 26 3 0 0
   R(n,l,m,s) 27 4 0 0
   R(n,l,m,s) 28 4 0 0
   R(n,l,m,s) 29 4 0 0
   R(n,l,m,s) 30 5 0 0
   R(n,l,m,s) 31 5 0 0
Expanding Ylm as L=1 as (1,-1,0) and L>1 as -l,-l+1,...,l-1,l
   Adding 1 spherical orbitals
   Adding 1 spherical orbitals
   Adding 1 spherical orbitals
   Adding 1 spherical orbitals
   Adding 1 spherical orbitals
   Adding 1 spherical orbitals
   Adding 1 spherical orbitals
   Adding 1 spherical orbitals
   Adding 3 spherical orbitals
   Adding 3 spherical orbitals
   Adding 3 spherical orbitals
   Adding 3 spherical orbitals
   Adding 3 spherical orbitals
   Adding 3 spherical orbitals
   Adding 3 spherical orbitals
   Adding 3 spherical orbitals
   Adding 5 spherical orbitals
   Adding 5 spherical orbitals
   Adding 5 spherical orbitals
   Adding 5 spherical orbitals
   Adding 5 spherical orbitals
   Adding 5 spherical orbitals
   Adding 5 spherical orbitals
   Adding 7 spherical orbitals
   Adding 7 spherical orbitals
   Adding 7 spherical orbitals
   Adding 7 spherical orbitals
   Adding 9 spherical orbitals
   Adding 9 spherical orbitals
   Adding 9 spherical orbitals
   Adding 11 spherical orbitals
   Adding 11 spherical orbitals
   Maximum Angular Momentum  = 5
   Number of Radial functors = 32
   Basis size                = 144

  Created SPOSet builder named 'LCAOBSet' of type molecularorbital
Reuse SPOSetBuilder "LCAOBSet" type MolecularOrbital
  Building SPOSet '' with '' basis set.
Reuse SPOSetBuilder "LCAOBSet" type MolecularOrbital
  Building SPOSet '' with '' basis set.
  Creating a determinant updet group=0 sposet=updet
  Reusing a SPO set updet
Using DiracDeterminant 
Using rank-1 Sherman-Morrison Fahy update

  Creating a determinant downdet group=1 sposet=downdet
  Reusing a SPO set downdet
Using DiracDeterminant 
Using rank-1 Sherman-Morrison Fahy update

  FermionWF = SlaterDet
  RadialJastrowBuilder adds a functor with cusp = -0.25
 size = 10 parameters 
 cusp = -0.25
 rcut = 12.1
Parameter     Name      Value
uu_0 0 1 1  ON 0
uu_1 0 1 1  ON 1
uu_2 0 1 1  ON 2
uu_3 0 1 1  ON 3
uu_4 0 1 1  ON 4
uu_5 0 1 1  ON 5
uu_6 0 1 1  ON 6
uu_7 0 1 1  ON 7
uu_8 0 1 1  ON 8
uu_9 0 1 1  ON 9
  RadialJastrowBuilder adds a functor with cusp = -0.5
 size = 10 parameters 
 cusp = -0.5
 rcut = 12.1
Parameter     Name      Value
ud_0 0 1 1  ON 0
ud_1 0 1 1  ON 1
ud_2 0 1 1  ON 2
ud_3 0 1 1  ON 3
ud_4 0 1 1  ON 4
ud_5 0 1 1  ON 5
ud_6 0 1 1  ON 6
ud_7 0 1 1  ON 7
ud_8 0 1 1  ON 8
ud_9 0 1 1  ON 9
 size = 10 parameters 
 cusp = 0
 rcut = 12.1
Parameter     Name      Value
eCr_0 0 1 1  ON 0
eCr_1 0 1 1  ON 1
eCr_2 0 1 1  ON 2
eCr_3 0 1 1  ON 3
eCr_4 0 1 1  ON 4
eCr_5 0 1 1  ON 5
eCr_6 0 1 1  ON 6
eCr_7 0 1 1  ON 7
eCr_8 0 1 1  ON 8
eCr_9 0 1 1  ON 9
Expected 26 parameters, but found 0 in PolynomialFunctor3D.
Expected 26 parameters, but found 0 in PolynomialFunctor3D.
  QMCHamiltonian::addOperator Kinetic to H, physical Hamiltonian 
  QMCHamiltonian::addOperator ElecElec to H, physical Hamiltonian 
QMCHamiltonian::addOperatorType added type coulomb named ElecElec
  CoulombAA for ion0 is not created.  Number of particles == 1 and nonPeriodic

  ECPotential builder for pseudopotential 

  Adding pseudopotential for Cr
   Linear grid  ri=0 rf=10 npts = 10001
    ECPComponentBuilder::buildSemiLocalAndLocal 
    Assuming Hartree unit
   Number of angular momentum channels 3
   Maximum angular momentum channel 2
   Creating a Linear Grid Rmax=1.44
  Using global grid with delta = 0.001
   Making L=2 a local potential with a radial cutoff of 9.999
    Non-local pseudopotential parameters
    Maximum angular mementum = 1
    Number of non-local channels = 2
       l(0)=0
       l(1)=1
    Cutoff radius = 1.44
    Spherical grids and weights: 
                        1                 0                 0       0.08333333333
                       -1   1.224646799e-16                 0       0.08333333333
             0.4472135955       0.894427191                 0       0.08333333333
            -0.4472135955      0.7236067977      0.5257311121       0.08333333333
             0.4472135955      0.2763932023      0.8506508084       0.08333333333
            -0.4472135955     -0.2763932023      0.8506508084       0.08333333333
             0.4472135955     -0.7236067977      0.5257311121       0.08333333333
            -0.4472135955      -0.894427191   1.095357397e-16       0.08333333333
             0.4472135955     -0.7236067977     -0.5257311121       0.08333333333
            -0.4472135955     -0.2763932023     -0.8506508084       0.08333333333
             0.4472135955      0.2763932023     -0.8506508084       0.08333333333
            -0.4472135955      0.7236067977     -0.5257311121       0.08333333333
    Maximum cutoff radius 1.44
  QMCHamiltonian::addOperator LocalECP to H, physical Hamiltonian 

  Using NonLocalECP potential 
    Maximum grid on a sphere for NonLocalECPotential: 12
  QMCHamiltonian::addOperator NonLocalECP to H, physical Hamiltonian 
QMCHamiltonian::addOperatorType added type pseudo named PseudoPot

  QMCHamiltonian::add2WalkerProperty added
    4 to P::PropertyList 
    0 to P::Collectables 
    starting Index of the observables in P::PropertyList = 9
ParticleSetPool::randomize 
<init source="ion0" target="e">
</init>
  Initialization Execution time = 0.8183 secs
=========================================================
 Summary of QMC systems 
=========================================================
ParticleSetPool has: 

  ParticleSet e : 0 10 14 

    14

    u -9.0160172134e-01 -5.8829761409e-01  5.7931003890e-01
    u -9.6495940139e-01  2.0762663278e+00  1.9819495472e+00
    u -4.9917037835e+00 -1.0831868535e+00  2.6986669435e-01
    u  2.5582934161e+00 -3.0336319574e-01 -2.2744381541e-01
    u  2.9747529402e+00  7.1242310305e-01 -1.4625453928e+00
    u -1.1859673923e+00  8.5310399969e-01  1.4348772887e+00
    u  2.0642564614e-01 -1.8727943730e+00 -1.0077961002e+00
    u  3.4674713716e+00  8.9497408923e-01  5.0105875101e+00
    u -6.5588761741e-01 -7.6220585677e-01 -4.2006040503e-01
    u  2.1392399575e+00 -2.8019709446e+00  7.7740480212e-01
    (... and 4 more particle positions ...)

  ParticleSet ion0 : 0 1 

    1

    Cr  0.0000000000e+00  0.0000000000e+00  0.0000000000e+00

  Hamiltonian h0
  Kinetic         Kinetic energy
  ElecElec        CoulombAA source/target e

  LocalECP        LocalECPotential: ion0
  NonLocalECP     NonLocalECPotential: ion0

=========================================================
  Start VMC
  File Root Cr.log.s000 append = no 
=========================================================
  Adding 1 walkers to 0 existing sets
  Total number of walkers: 1.0240000000e+03
  Total weight: 1.0240000000e+03
  Resetting Properties of the walkers 1 x 13

<vmc function="put">
  qmc_counter=0  my_counter=0
  time step      = 1.5000000000e-01
  blocks         = 200
  steps          = 1
  substeps       = 5
  current        = 0
  target samples = 1.0240000000e+03
  walkers/mpi    = 1

  stepsbetweensamples = 200
<parameter name="blocks" condition="int">200</parameter>
<parameter name="blocks_between_recompute" condition="int">0</parameter>
<parameter name="check_properties" condition="int">100</parameter>
<parameter name="checkproperties" condition="int">100</parameter>
<parameter name="current" condition="int">0</parameter>
<parameter name="dmcwalkersperthread" condition="real">1.0000000000e+00</parameter>
<parameter name="maxcpusecs" condition="real">3.6000000000e+05</parameter>
<parameter name="record_configs" condition="int">0</parameter>
<parameter name="record_walkers" condition="int">200</parameter>
<parameter name="recordconfigs" condition="int">0</parameter>
<parameter name="recordwalkers" condition="int">200</parameter>
<parameter name="rewind" condition="int">0</parameter>
<parameter name="samples" condition="real">1.0240000000e+03</parameter>
<parameter name="samplesperthread" condition="real">1.0000000000e+00</parameter>
<parameter name="steps" condition="int">1</parameter>
<parameter name="stepsbetweensamples" condition="int">200</parameter>
<parameter name="store_configs" condition="int">0</parameter>
<parameter name="storeconfigs" condition="int">0</parameter>
<parameter name="sub_steps" condition="int">5</parameter>
<parameter name="substeps" condition="int">5</parameter>
<parameter name="tau" condition="au">1.5000000000e-01</parameter>
<parameter name="time_step" condition="au">1.5000000000e-01</parameter>
<parameter name="timestep" condition="au">1.5000000000e-01</parameter>
<parameter name="use_drift" condition="string">no</parameter>
<parameter name="usedrift" condition="string">no</parameter>
<parameter name="walkers" condition="int">1</parameter>
<parameter name="warmup_steps" condition="int">100</parameter>
<parameter name="warmupsteps" condition="int">100</parameter>
  DumpConfig==false Nothing (configurations, state) will be saved.
  Walker Samples are dumped every 200 steps.
</vmc>
  Initial partition of walkers 0 1 

  Using Particle by Particle moves
  Walker moves without drift
  Total Sample Size   =1024
  Walker distribution on root = 0 1 
  Using Locality Approximation
===== Memory Usage after the buffer registration =====
Available memory on node 0, free + buffers : 83937 MB
Memory footprint by rank 0 on node 0       : 76 MB
==================================================
  Anonymous Buffer size per walker : 7584 Bytes.
MEMORY increase 0 MB VMC::resetRun
====================================================
  SimpleFixedNodeBranch::finalize after a VMC block
    QMC counter        = 0
    time step          = 0.15
    reference energy   = -86.2528
    reference variance = 2.86636
====================================================
  QMC Execution time = 1.9935e+00 secs 
Loop execution max-interations = 5

=========================================================
  Start QMCFixedSampleLinearOptimize
  File Root Cr.log.s001 append = no 
=========================================================
  Skip QMCDriver::putQMCInfo 
  Resetting Properties of the walkers 1 x 13

=========================================================
  Start VMC
  File Root Cr.log.s001 append = no 
=========================================================
  Using the current 1 walkers.
  Total number of walkers: 1.0240e+03
  Total weight: 1.0240e+03
  Resetting Properties of the walkers 1 x 13

<vmc function="put">
  qmc_counter=0  my_counter=0
  time step      = 1.5000e-01
  blocks         = 400
  steps          = 1
  substeps       = 5
  current        = 0
  target samples = 2.5600e+05
  walkers/mpi    = 1

  stepsbetweensamples = 1
<parameter name="blocks" condition="int">400</parameter>
<parameter name="blocks_between_recompute" condition="int">0</parameter>
<parameter name="check_properties" condition="int">100</parameter>
<parameter name="checkproperties" condition="int">100</parameter>
<parameter name="current" condition="int">0</parameter>
<parameter name="dmcwalkersperthread" condition="real">2.5000e+02</parameter>
<parameter name="maxcpusecs" condition="real">3.6000e+05</parameter>
<parameter name="record_configs" condition="int">0</parameter>
<parameter name="record_walkers" condition="int">1</parameter>
<parameter name="recordconfigs" condition="int">0</parameter>
<parameter name="recordwalkers" condition="int">1</parameter>
<parameter name="rewind" condition="int">0</parameter>
<parameter name="samples" condition="real">2.5600e+05</parameter>
<parameter name="samplesperthread" condition="real">2.5000e+02</parameter>
<parameter name="steps" condition="int">1</parameter>
<parameter name="stepsbetweensamples" condition="int">1</parameter>
<parameter name="store_configs" condition="int">0</parameter>
<parameter name="storeconfigs" condition="int">0</parameter>
<parameter name="sub_steps" condition="int">5</parameter>
<parameter name="substeps" condition="int">5</parameter>
<parameter name="tau" condition="au">1.5000e-01</parameter>
<parameter name="time_step" condition="au">1.5000e-01</parameter>
<parameter name="timestep" condition="au">1.5000e-01</parameter>
<parameter name="use_drift" condition="string">no</parameter>
<parameter name="usedrift" condition="string">no</parameter>
<parameter name="walkers" condition="int">1</parameter>
<parameter name="warmup_steps" condition="int">0</parameter>
<parameter name="warmupsteps" condition="int">0</parameter>
  DumpConfig==false Nothing (configurations, state) will be saved.
  Walker Samples are dumped every 1 steps.
</vmc>
    Restarting, cummulative properties:
      energy     = -8.6253e+01
      variance   = 0.0000e+00
      r2accepted = 1.0000e-10
      r2proposed = 1.0000e-10
 Using QMCCostFunction::QMCCostFunction
  EstimatorManagerBase::add replace LocalEnergy estimator.
<optimization-report>
<vmc stage="main" blocks="400">
  Cannot make clones again. Use existing 1 clones
  Initial partition of walkers 0 1 

  Using Particle by Particle moves
  Walker moves without drift
  Total Sample Size   =256000
  Walker distribution on root = 0 1 
  Using Locality Approximation
===== Memory Usage after the buffer registration =====
Available memory on node 0, free + buffers : 83925 MB
Memory footprint by rank 0 on node 0       : 76 MB
==================================================
  Anonymous Buffer size per walker : 7584 Bytes.
MEMORY increase 0 MB VMC::resetRun
====================================================
  SimpleFixedNodeBranch::finalize after a VMC block
    QMC counter        = 1
    time step          = 0.15
    reference energy   = -86.2217
    reference variance = 3.12708
====================================================
  Execution time = 3.3742e+00
</vmc>
<opt stage="setup">
  <log>
   Reading configurations from h5FileRoot Cr.log.s001
  QMCCostFunction is created with 1 threads.
  Using Nonlocal PP in Opt: NonLocalECP
   Number of samples loaded to each thread : 250 
  VMC Eavg = -8.6242e+01
  VMC Evar = 3.1580e+00
  Total weights = 2.5600e+05
  Execution time = 5.9430e-01
  </log>
</opt>
<opt stage="main" walkers="256000">
  <log>

*****************************************
Building overlap and Hamiltonian matrices
*****************************************

Among totally 30 optimized parameters, largest LM parameter change : 9.1160e-01 at parameter 20

******************************************************************************
Init Cost =   3.1580e+00    New Cost =   1.2963e+00  Delta Cost =  -1.8616e+00
******************************************************************************

The new set of parameters is valid. Updating the trial wave function!

*****************************************************************************
Applying the update for shift_i =   1.0000e-02     and shift_s =   2.5000e-01
*****************************************************************************
  Execution time = 5.6667e+00
  </log>
  <optVariables href="Cr.log.s001.opt.xml">
uu_0 1.6789e-01 1 1  ON 0
uu_1 2.3214e-02 1 1  ON 1
uu_2 -1.9920e-02 1 1  ON 2
uu_3 -3.7319e-02 1 1  ON 3
uu_4 -2.9294e-02 1 1  ON 4
uu_5 -2.3091e-02 1 1  ON 5
uu_6 -1.0461e-02 1 1  ON 6
uu_7 -7.2890e-03 1 1  ON 7
uu_8 -3.1051e-03 1 1  ON 8
uu_9 -3.5427e-03 1 1  ON 9
ud_0 1.9169e-01 1 1  ON 10
ud_1 1.4265e-02 1 1  ON 11
ud_2 -2.6448e-02 1 1  ON 12
ud_3 -4.6103e-02 1 1  ON 13
ud_4 -3.3655e-02 1 1  ON 14
ud_5 -2.7554e-02 1 1  ON 15
ud_6 -1.2086e-02 1 1  ON 16
ud_7 -9.4736e-03 1 1  ON 17
ud_8 -9.0700e-03 1 1  ON 18
ud_9 -1.0368e-02 1 1  ON 19
eCr_0 -9.1160e-01 1 1  ON 20
eCr_1 -2.3579e-01 1 1  ON 21
eCr_2 2.3129e-01 1 1  ON 22
eCr_3 3.5160e-01 1 1  ON 23
eCr_4 3.1071e-01 1 1  ON 24
eCr_5 1.9178e-01 1 1  ON 25
eCr_6 6.8314e-02 1 1  ON 26
eCr_7 3.3697e-03 1 1  ON 27
eCr_8 3.1510e-05 1 1  ON 28
eCr_9 -1.9831e-03 1 1  ON 29
  </optVariables>
   Restore the number of walkers to 1, removing 0 walkers.
</opt>
</optimization-report>
  QMC Execution time = 5.6773e+00 secs 
  Reusing QMCFixedSampleLinearOptimize
 Using QMCCostFunction::QMCCostFunction

=========================================================
  Start QMCFixedSampleLinearOptimize
  File Root Cr.log.s002 append = no 
=========================================================
  Skip QMCDriver::putQMCInfo 
  Resetting Properties of the walkers 1 x 13

=========================================================
  Start VMC
  File Root Cr.log.s002 append = no 
=========================================================
Using existing walkers 
  Resetting Properties of the walkers 1 x 13

<vmc function="put">
  qmc_counter=1  my_counter=1
  time step      = 1.5000e-01
  blocks         = 400
  steps          = 1
  substeps       = 5
  current        = 0
  target samples = 2.5600e+05
  walkers/mpi    = 1

  stepsbetweensamples = 1
<parameter name="blocks" condition="int">400</parameter>
<parameter name="blocks_between_recompute" condition="int">0</parameter>
<parameter name="check_properties" condition="int">100</parameter>
<parameter name="checkproperties" condition="int">100</parameter>
<parameter name="current" condition="int">0</parameter>
<parameter name="dmcwalkersperthread" condition="real">2.5000e+02</parameter>
<parameter name="maxcpusecs" condition="real">3.6000e+05</parameter>
<parameter name="record_configs" condition="int">0</parameter>
<parameter name="record_walkers" condition="int">1</parameter>
<parameter name="recordconfigs" condition="int">0</parameter>
<parameter name="recordwalkers" condition="int">1</parameter>
<parameter name="rewind" condition="int">0</parameter>
<parameter name="samples" condition="real">2.5600e+05</parameter>
<parameter name="samplesperthread" condition="real">2.5000e+02</parameter>
<parameter name="steps" condition="int">1</parameter>
<parameter name="stepsbetweensamples" condition="int">1</parameter>
<parameter name="store_configs" condition="int">0</parameter>
<parameter name="storeconfigs" condition="int">0</parameter>
<parameter name="sub_steps" condition="int">5</parameter>
<parameter name="substeps" condition="int">5</parameter>
<parameter name="tau" condition="au">1.5000e-01</parameter>
<parameter name="time_step" condition="au">1.5000e-01</parameter>
<parameter name="timestep" condition="au">1.5000e-01</parameter>
<parameter name="use_drift" condition="string">no</parameter>
<parameter name="usedrift" condition="string">no</parameter>
<parameter name="walkers" condition="int">1</parameter>
<parameter name="warmup_steps" condition="int">0</parameter>
<parameter name="warmupsteps" condition="int">0</parameter>
  DumpConfig==false Nothing (configurations, state) will be saved.
  Walker Samples are dumped every 1 steps.
</vmc>
  EstimatorManagerBase::add replace LocalEnergy estimator.
  EstimatorManagerBase::add replace LocalEnergy estimator.
<optimization-report>
<vmc stage="main" blocks="400">
  Cannot make clones again. Use existing 1 clones
  Initial partition of walkers 0 1 
  Using Particle by Particle moves
  Walker moves without drift
  Total Sample Size   =256000
  Walker distribution on root = 0 1 
  Using Locality Approximation
===== Memory Usage after the buffer registration =====
Available memory on node 0, free + buffers : 83909 MB
Memory footprint by rank 0 on node 0       : 78 MB
==================================================
====================================================
  SimpleFixedNodeBranch::finalize after a VMC block
    QMC counter        = 2
    time step          = 0.15
    reference energy   = -86.503
    reference variance = 0.961098
====================================================
  Execution time = 5.5517e+00
</vmc>
<opt stage="setup">
  <log>
   Reading configurations from h5FileRoot Cr.log.s002
  QMCCostFunction is created with 1 threads.
  Using Nonlocal PP in Opt: NonLocalECP
   Number of samples loaded to each thread : 250 
  VMC Eavg = -8.6502e+01
  VMC Evar = 1.1427e+00
  Total weights = 2.5600e+05
  Execution time = 1.6588e+00
  </log>
</opt>
<opt stage="main" walkers="256000">
  <log>

*****************************************
Building overlap and Hamiltonian matrices
*****************************************

Among totally 30 optimized parameters, largest LM parameter change : 4.2751e-01 at parameter 20

******************************************************************************
Init Cost =   1.1427e+00    New Cost =   1.2586e+00  Delta Cost =   1.1588e-01
******************************************************************************

The new set of parameters is valid. Updating the trial wave function!

*****************************************************************************
Applying the update for shift_i =   1.0000e-02     and shift_s =   6.2500e-02
*****************************************************************************
  Execution time = 9.0385e+00
  </log>
  <optVariables href="Cr.log.s002.opt.xml">
uu_0 2.1724e-01 1 1  ON 0
uu_1 3.9529e-02 1 1  ON 1
uu_2 -2.9184e-02 1 1  ON 2
uu_3 -6.0753e-02 1 1  ON 3
uu_4 -5.6616e-02 1 1  ON 4
uu_5 -4.6207e-02 1 1  ON 5
uu_6 -2.3223e-02 1 1  ON 6
uu_7 -9.0875e-03 1 1  ON 7
uu_8 -4.9099e-04 1 1  ON 8
uu_9 -3.2865e-03 1 1  ON 9
ud_0 2.5671e-01 1 1  ON 10
ud_1 4.0567e-02 1 1  ON 11
ud_2 -2.6460e-02 1 1  ON 12
ud_3 -6.0123e-02 1 1  ON 13
ud_4 -5.0793e-02 1 1  ON 14
ud_5 -4.4925e-02 1 1  ON 15
ud_6 -2.3804e-02 1 1  ON 16
ud_7 -2.5248e-02 1 1  ON 17
ud_8 -2.4209e-02 1 1  ON 18
ud_9 -1.6400e-02 1 1  ON 19
eCr_0 -1.3391e+00 1 1  ON 20
eCr_1 -4.5990e-01 1 1  ON 21
eCr_2 2.5761e-01 1 1  ON 22
eCr_3 5.1814e-01 1 1  ON 23
eCr_4 5.2206e-01 1 1  ON 24
eCr_5 3.5563e-01 1 1  ON 25
eCr_6 1.4274e-01 1 1  ON 26
eCr_7 1.3026e-02 1 1  ON 27
eCr_8 4.1571e-04 1 1  ON 28
eCr_9 -4.5450e-03 1 1  ON 29
  </optVariables>
   Restore the number of walkers to 1, removing 0 walkers.
</opt>
</optimization-report>
  QMC Execution time = 9.0480e+00 secs 
  Reusing QMCFixedSampleLinearOptimize
 Using QMCCostFunction::QMCCostFunction

=========================================================
  Start QMCFixedSampleLinearOptimize
  File Root Cr.log.s003 append = no 
=========================================================
  Skip QMCDriver::putQMCInfo 
  Resetting Properties of the walkers 1 x 13

=========================================================
  Start VMC
  File Root Cr.log.s003 append = no 
=========================================================
Using existing walkers 
  Resetting Properties of the walkers 1 x 13

<vmc function="put">
  qmc_counter=2  my_counter=2
  time step      = 1.5000e-01
  blocks         = 400
  steps          = 1
  substeps       = 5
  current        = 0
  target samples = 2.5600e+05
  walkers/mpi    = 1

  stepsbetweensamples = 1
<parameter name="blocks" condition="int">400</parameter>
<parameter name="blocks_between_recompute" condition="int">0</parameter>
<parameter name="check_properties" condition="int">100</parameter>
<parameter name="checkproperties" condition="int">100</parameter>
<parameter name="current" condition="int">0</parameter>
<parameter name="dmcwalkersperthread" condition="real">2.5000e+02</parameter>
<parameter name="maxcpusecs" condition="real">3.6000e+05</parameter>
<parameter name="record_configs" condition="int">0</parameter>
<parameter name="record_walkers" condition="int">1</parameter>
<parameter name="recordconfigs" condition="int">0</parameter>
<parameter name="recordwalkers" condition="int">1</parameter>
<parameter name="rewind" condition="int">0</parameter>
<parameter name="samples" condition="real">2.5600e+05</parameter>
<parameter name="samplesperthread" condition="real">2.5000e+02</parameter>
<parameter name="steps" condition="int">1</parameter>
<parameter name="stepsbetweensamples" condition="int">1</parameter>
<parameter name="store_configs" condition="int">0</parameter>
<parameter name="storeconfigs" condition="int">0</parameter>
<parameter name="sub_steps" condition="int">5</parameter>
<parameter name="substeps" condition="int">5</parameter>
<parameter name="tau" condition="au">1.5000e-01</parameter>
<parameter name="time_step" condition="au">1.5000e-01</parameter>
<parameter name="timestep" condition="au">1.5000e-01</parameter>
<parameter name="use_drift" condition="string">no</parameter>
<parameter name="usedrift" condition="string">no</parameter>
<parameter name="walkers" condition="int">1</parameter>
<parameter name="warmup_steps" condition="int">0</parameter>
<parameter name="warmupsteps" condition="int">0</parameter>
  DumpConfig==false Nothing (configurations, state) will be saved.
  Walker Samples are dumped every 1 steps.
</vmc>
  EstimatorManagerBase::add replace LocalEnergy estimator.
  EstimatorManagerBase::add replace LocalEnergy estimator.
<optimization-report>
<vmc stage="main" blocks="400">
  Cannot make clones again. Use existing 1 clones
  Initial partition of walkers 0 1 
  Using Particle by Particle moves
  Walker moves without drift
  Total Sample Size   =256000
  Walker distribution on root = 0 1 
  Using Locality Approximation
===== Memory Usage after the buffer registration =====
Available memory on node 0, free + buffers : 83906 MB
Memory footprint by rank 0 on node 0       : 81 MB
==================================================
====================================================
  SimpleFixedNodeBranch::finalize after a VMC block
    QMC counter        = 3
    time step          = 0.15
    reference energy   = -86.4592
    reference variance = 1.12866
====================================================
  Execution time = 5.0971e+00
</vmc>
<opt stage="setup">
  <log>
   Reading configurations from h5FileRoot Cr.log.s003
  QMCCostFunction is created with 1 threads.
  Using Nonlocal PP in Opt: NonLocalECP
   Number of samples loaded to each thread : 250 
  VMC Eavg = -8.6530e+01
  VMC Evar = 1.1944e+00
  Total weights = 2.5600e+05
  Execution time = 1.3830e+00
  </log>
</opt>
<opt stage="main" walkers="256000">
  <log>

*****************************************
Building overlap and Hamiltonian matrices
*****************************************

Among totally 30 optimized parameters, largest LM parameter change : 1.6932e-01 at parameter 20

******************************************************************************
Init Cost =   1.1944e+00    New Cost =   1.2335e+00  Delta Cost =   3.9158e-02
******************************************************************************

The new set of parameters is valid. Updating the trial wave function!

*****************************************************************************
Applying the update for shift_i =   1.0000e-02     and shift_s =   1.5625e-02
*****************************************************************************
  Execution time = 7.7326e+00
  </log>
  <optVariables href="Cr.log.s003.opt.xml">
uu_0 2.2310e-01 1 1  ON 0
uu_1 4.1024e-02 1 1  ON 1
uu_2 -3.3793e-02 1 1  ON 2
uu_3 -7.2120e-02 1 1  ON 3
uu_4 -7.5072e-02 1 1  ON 4
uu_5 -6.8788e-02 1 1  ON 5
uu_6 -4.4662e-02 1 1  ON 6
uu_7 -2.4891e-02 1 1  ON 7
uu_8 -1.0118e-02 1 1  ON 8
uu_9 -1.8716e-03 1 1  ON 9
ud_0 2.6585e-01 1 1  ON 10
ud_1 4.5085e-02 1 1  ON 11
ud_2 -2.8629e-02 1 1  ON 12
ud_3 -7.0810e-02 1 1  ON 13
ud_4 -6.8372e-02 1 1  ON 14
ud_5 -5.7094e-02 1 1  ON 15
ud_6 -2.9598e-02 1 1  ON 16
ud_7 -1.6469e-02 1 1  ON 17
ud_8 -2.8330e-02 1 1  ON 18
ud_9 -2.5107e-02 1 1  ON 19
eCr_0 -1.5084e+00 1 1  ON 20
eCr_1 -5.9036e-01 1 1  ON 21
eCr_2 1.9270e-01 1 1  ON 22
eCr_3 5.3196e-01 1 1  ON 23
eCr_4 6.2204e-01 1 1  ON 24
eCr_5 4.8645e-01 1 1  ON 25
eCr_6 2.3433e-01 1 1  ON 26
eCr_7 3.9809e-02 1 1  ON 27
eCr_8 -4.9831e-03 1 1  ON 28
eCr_9 -8.8394e-03 1 1  ON 29
  </optVariables>
   Restore the number of walkers to 1, removing 0 walkers.
</opt>
</optimization-report>
  QMC Execution time = 7.7420e+00 secs 
  Reusing QMCFixedSampleLinearOptimize
 Using QMCCostFunction::QMCCostFunction

=========================================================
  Start QMCFixedSampleLinearOptimize
  File Root Cr.log.s004 append = no 
=========================================================
  Skip QMCDriver::putQMCInfo 
  Resetting Properties of the walkers 1 x 13

=========================================================
  Start VMC
  File Root Cr.log.s004 append = no 
=========================================================
Using existing walkers 
  Resetting Properties of the walkers 1 x 13

<vmc function="put">
  qmc_counter=3  my_counter=3
  time step      = 1.5000e-01
  blocks         = 400
  steps          = 1
  substeps       = 5
  current        = 0
  target samples = 2.5600e+05
  walkers/mpi    = 1

  stepsbetweensamples = 1
<parameter name="blocks" condition="int">400</parameter>
<parameter name="blocks_between_recompute" condition="int">0</parameter>
<parameter name="check_properties" condition="int">100</parameter>
<parameter name="checkproperties" condition="int">100</parameter>
<parameter name="current" condition="int">0</parameter>
<parameter name="dmcwalkersperthread" condition="real">2.5000e+02</parameter>
<parameter name="maxcpusecs" condition="real">3.6000e+05</parameter>
<parameter name="record_configs" condition="int">0</parameter>
<parameter name="record_walkers" condition="int">1</parameter>
<parameter name="recordconfigs" condition="int">0</parameter>
<parameter name="recordwalkers" condition="int">1</parameter>
<parameter name="rewind" condition="int">0</parameter>
<parameter name="samples" condition="real">2.5600e+05</parameter>
<parameter name="samplesperthread" condition="real">2.5000e+02</parameter>
<parameter name="steps" condition="int">1</parameter>
<parameter name="stepsbetweensamples" condition="int">1</parameter>
<parameter name="store_configs" condition="int">0</parameter>
<parameter name="storeconfigs" condition="int">0</parameter>
<parameter name="sub_steps" condition="int">5</parameter>
<parameter name="substeps" condition="int">5</parameter>
<parameter name="tau" condition="au">1.5000e-01</parameter>
<parameter name="time_step" condition="au">1.5000e-01</parameter>
<parameter name="timestep" condition="au">1.5000e-01</parameter>
<parameter name="use_drift" condition="string">no</parameter>
<parameter name="usedrift" condition="string">no</parameter>
<parameter name="walkers" condition="int">1</parameter>
<parameter name="warmup_steps" condition="int">0</parameter>
<parameter name="warmupsteps" condition="int">0</parameter>
  DumpConfig==false Nothing (configurations, state) will be saved.
  Walker Samples are dumped every 1 steps.
</vmc>
  EstimatorManagerBase::add replace LocalEnergy estimator.
  EstimatorManagerBase::add replace LocalEnergy estimator.
<optimization-report>
<vmc stage="main" blocks="400">
  Cannot make clones again. Use existing 1 clones
  Initial partition of walkers 0 1 
  Using Particle by Particle moves
  Walker moves without drift
  Total Sample Size   =256000
  Walker distribution on root = 0 1 
  Using Locality Approximation
===== Memory Usage after the buffer registration =====
Available memory on node 0, free + buffers : 83903 MB
Memory footprint by rank 0 on node 0       : 83 MB
==================================================
====================================================
  SimpleFixedNodeBranch::finalize after a VMC block
    QMC counter        = 4
    time step          = 0.15
    reference energy   = -86.5717
    reference variance = 1.14506
====================================================
  Execution time = 5.0743e+00
</vmc>
<opt stage="setup">
  <log>
   Reading configurations from h5FileRoot Cr.log.s004
  QMCCostFunction is created with 1 threads.
  Using Nonlocal PP in Opt: NonLocalECP
   Number of samples loaded to each thread : 250 
  VMC Eavg = -8.6531e+01
  VMC Evar = 1.2556e+00
  Total weights = 2.5600e+05
  Execution time = 1.2918e+00
  </log>
</opt>
<opt stage="main" walkers="256000">
  <log>

*****************************************
Building overlap and Hamiltonian matrices
*****************************************

Among totally 30 optimized parameters, largest LM parameter change : 1.1110e-01 at parameter 20

******************************************************************************
Init Cost =   1.2556e+00    New Cost =   1.2723e+00  Delta Cost =   1.6763e-02
******************************************************************************

The new set of parameters is valid. Updating the trial wave function!

*****************************************************************************
Applying the update for shift_i =   1.0000e-02     and shift_s =   3.9062e-03
*****************************************************************************
  Execution time = 7.4380e+00
  </log>
  <optVariables href="Cr.log.s004.opt.xml">
uu_0 2.3166e-01 1 1  ON 0
uu_1 4.7673e-02 1 1  ON 1
uu_2 -3.0027e-02 1 1  ON 2
uu_3 -7.2080e-02 1 1  ON 3
uu_4 -8.0773e-02 1 1  ON 4
uu_5 -7.7787e-02 1 1  ON 5
uu_6 -5.1946e-02 1 1  ON 6
uu_7 -3.5142e-02 1 1  ON 7
uu_8 -2.1810e-02 1 1  ON 8
uu_9 2.3831e-03 1 1  ON 9
ud_0 2.7573e-01 1 1  ON 10
ud_1 5.3787e-02 1 1  ON 11
ud_2 -2.3484e-02 1 1  ON 12
ud_3 -7.0251e-02 1 1  ON 13
ud_4 -7.2825e-02 1 1  ON 14
ud_5 -6.9050e-02 1 1  ON 15
ud_6 -4.2657e-02 1 1  ON 16
ud_7 -1.9874e-02 1 1  ON 17
ud_8 -1.7046e-02 1 1  ON 18
ud_9 -2.1718e-02 1 1  ON 19
eCr_0 -1.6195e+00 1 1  ON 20
eCr_1 -6.8369e-01 1 1  ON 21
eCr_2 1.3340e-01 1 1  ON 22
eCr_3 5.2921e-01 1 1  ON 23
eCr_4 6.8268e-01 1 1  ON 24
eCr_5 5.7671e-01 1 1  ON 25
eCr_6 3.1276e-01 1 1  ON 26
eCr_7 7.2829e-02 1 1  ON 27
eCr_8 -2.3847e-03 1 1  ON 28
eCr_9 -6.2227e-03 1 1  ON 29
  </optVariables>
   Restore the number of walkers to 1, removing 0 walkers.
</opt>
</optimization-report>
  QMC Execution time = 7.4466e+00 secs 
  Reusing QMCFixedSampleLinearOptimize
 Using QMCCostFunction::QMCCostFunction

=========================================================
  Start QMCFixedSampleLinearOptimize
  File Root Cr.log.s005 append = no 
=========================================================
  Skip QMCDriver::putQMCInfo 
  Resetting Properties of the walkers 1 x 13

=========================================================
  Start VMC
  File Root Cr.log.s005 append = no 
=========================================================
Using existing walkers 
  Resetting Properties of the walkers 1 x 13

<vmc function="put">
  qmc_counter=4  my_counter=4
  time step      = 1.5000e-01
  blocks         = 400
  steps          = 1
  substeps       = 5
  current        = 0
  target samples = 2.5600e+05
  walkers/mpi    = 1

  stepsbetweensamples = 1
<parameter name="blocks" condition="int">400</parameter>
<parameter name="blocks_between_recompute" condition="int">0</parameter>
<parameter name="check_properties" condition="int">100</parameter>
<parameter name="checkproperties" condition="int">100</parameter>
<parameter name="current" condition="int">0</parameter>
<parameter name="dmcwalkersperthread" condition="real">2.5000e+02</parameter>
<parameter name="maxcpusecs" condition="real">3.6000e+05</parameter>
<parameter name="record_configs" condition="int">0</parameter>
<parameter name="record_walkers" condition="int">1</parameter>
<parameter name="recordconfigs" condition="int">0</parameter>
<parameter name="recordwalkers" condition="int">1</parameter>
<parameter name="rewind" condition="int">0</parameter>
<parameter name="samples" condition="real">2.5600e+05</parameter>
<parameter name="samplesperthread" condition="real">2.5000e+02</parameter>
<parameter name="steps" condition="int">1</parameter>
<parameter name="stepsbetweensamples" condition="int">1</parameter>
<parameter name="store_configs" condition="int">0</parameter>
<parameter name="storeconfigs" condition="int">0</parameter>
<parameter name="sub_steps" condition="int">5</parameter>
<parameter name="substeps" condition="int">5</parameter>
<parameter name="tau" condition="au">1.5000e-01</parameter>
<parameter name="time_step" condition="au">1.5000e-01</parameter>
<parameter name="timestep" condition="au">1.5000e-01</parameter>
<parameter name="use_drift" condition="string">no</parameter>
<parameter name="usedrift" condition="string">no</parameter>
<parameter name="walkers" condition="int">1</parameter>
<parameter name="warmup_steps" condition="int">0</parameter>
<parameter name="warmupsteps" condition="int">0</parameter>
  DumpConfig==false Nothing (configurations, state) will be saved.
  Walker Samples are dumped every 1 steps.
</vmc>
  EstimatorManagerBase::add replace LocalEnergy estimator.
  EstimatorManagerBase::add replace LocalEnergy estimator.
<optimization-report>
<vmc stage="main" blocks="400">
  Cannot make clones again. Use existing 1 clones
  Initial partition of walkers 0 1 
  Using Particle by Particle moves
  Walker moves without drift
  Total Sample Size   =256000
  Walker distribution on root = 0 1 
  Using Locality Approximation
===== Memory Usage after the buffer registration =====
Available memory on node 0, free + buffers : 83900 MB
Memory footprint by rank 0 on node 0       : 86 MB
==================================================
====================================================
  SimpleFixedNodeBranch::finalize after a VMC block
    QMC counter        = 5
    time step          = 0.15
    reference energy   = -86.555
    reference variance = 1.13672
====================================================
  Execution time = 4.7942e+00
</vmc>
<opt stage="setup">
  <log>
   Reading configurations from h5FileRoot Cr.log.s005
  QMCCostFunction is created with 1 threads.
  Using Nonlocal PP in Opt: NonLocalECP
   Number of samples loaded to each thread : 250 
  VMC Eavg = -8.6534e+01
  VMC Evar = 1.2824e+00
  Total weights = 2.5600e+05
  Execution time = 1.1189e+00
  </log>
</opt>
<opt stage="main" walkers="256000">
  <log>

*****************************************
Building overlap and Hamiltonian matrices
*****************************************

Among totally 30 optimized parameters, largest LM parameter change : 7.3044e-02 at parameter 26

******************************************************************************
Init Cost =   1.2824e+00    New Cost =   1.2888e+00  Delta Cost =   6.4240e-03
******************************************************************************

The new set of parameters is valid. Updating the trial wave function!

*****************************************************************************
Applying the update for shift_i =   1.0000e-02     and shift_s =   3.9062e-03
*****************************************************************************
  Execution time = 6.9038e+00
  </log>
  <optVariables href="Cr.log.s005.opt.xml">
uu_0 2.3887e-01 1 1  ON 0
uu_1 5.4091e-02 1 1  ON 1
uu_2 -2.3668e-02 1 1  ON 2
uu_3 -6.7804e-02 1 1  ON 3
uu_4 -7.9794e-02 1 1  ON 4
uu_5 -8.0930e-02 1 1  ON 5
uu_6 -6.4050e-02 1 1  ON 6
uu_7 -3.4258e-02 1 1  ON 7
uu_8 -1.1263e-02 1 1  ON 8
uu_9 1.0788e-02 1 1  ON 9
ud_0 2.7644e-01 1 1  ON 10
ud_1 5.3451e-02 1 1  ON 11
ud_2 -2.3957e-02 1 1  ON 12
ud_3 -7.2475e-02 1 1  ON 13
ud_4 -7.9466e-02 1 1  ON 14
ud_5 -7.6350e-02 1 1  ON 15
ud_6 -4.3351e-02 1 1  ON 16
ud_7 -1.7154e-02 1 1  ON 17
ud_8 4.9610e-03 1 1  ON 18
ud_9 -8.0707e-03 1 1  ON 19
eCr_0 -1.6789e+00 1 1  ON 20
eCr_1 -7.4193e-01 1 1  ON 21
eCr_2 8.5481e-02 1 1  ON 22
eCr_3 5.0334e-01 1 1  ON 23
eCr_4 7.0361e-01 1 1  ON 24
eCr_5 6.2785e-01 1 1  ON 25
eCr_6 3.8580e-01 1 1  ON 26
eCr_7 1.1287e-01 1 1  ON 27
eCr_8 4.1620e-03 1 1  ON 28
eCr_9 -2.1931e-03 1 1  ON 29
  </optVariables>
   Restore the number of walkers to 1, removing 0 walkers.
</opt>
</optimization-report>
  QMC Execution time = 6.9123e+00 secs 
Loop execution max-interations = 5
  Reusing QMCFixedSampleLinearOptimize
 Using QMCCostFunction::QMCCostFunction

=========================================================
  Start QMCFixedSampleLinearOptimize
  File Root Cr.log.s006 append = no 
=========================================================
  Skip QMCDriver::putQMCInfo 
  Resetting Properties of the walkers 1 x 13

=========================================================
  Start VMC
  File Root Cr.log.s006 append = no 
=========================================================
  Using the current 1 walkers.
  Total number of walkers: 1.0240e+03
  Total weight: 1.0240e+03
  Resetting Properties of the walkers 1 x 13

<vmc function="put">
  qmc_counter=0  my_counter=5
  time step      = 1.5000e-01
  blocks         = 400
  steps          = 1
  substeps       = 5
  current        = 0
  target samples = 2.5600e+05
  walkers/mpi    = 1

  stepsbetweensamples = 1
<parameter name="blocks" condition="int">400</parameter>
<parameter name="blocks_between_recompute" condition="int">0</parameter>
<parameter name="check_properties" condition="int">100</parameter>
<parameter name="checkproperties" condition="int">100</parameter>
<parameter name="current" condition="int">0</parameter>
<parameter name="dmcwalkersperthread" condition="real">2.5000e+02</parameter>
<parameter name="maxcpusecs" condition="real">3.6000e+05</parameter>
<parameter name="record_configs" condition="int">0</parameter>
<parameter name="record_walkers" condition="int">1</parameter>
<parameter name="recordconfigs" condition="int">0</parameter>
<parameter name="recordwalkers" condition="int">1</parameter>
<parameter name="rewind" condition="int">0</parameter>
<parameter name="samples" condition="real">2.5600e+05</parameter>
<parameter name="samplesperthread" condition="real">2.5000e+02</parameter>
<parameter name="steps" condition="int">1</parameter>
<parameter name="stepsbetweensamples" condition="int">1</parameter>
<parameter name="store_configs" condition="int">0</parameter>
<parameter name="storeconfigs" condition="int">0</parameter>
<parameter name="sub_steps" condition="int">5</parameter>
<parameter name="substeps" condition="int">5</parameter>
<parameter name="tau" condition="au">1.5000e-01</parameter>
<parameter name="time_step" condition="au">1.5000e-01</parameter>
<parameter name="timestep" condition="au">1.5000e-01</parameter>
<parameter name="use_drift" condition="string">no</parameter>
<parameter name="usedrift" condition="string">no</parameter>
<parameter name="walkers" condition="int">1</parameter>
<parameter name="warmup_steps" condition="int">0</parameter>
<parameter name="warmupsteps" condition="int">0</parameter>
  DumpConfig==false Nothing (configurations, state) will be saved.
  Walker Samples are dumped every 1 steps.
</vmc>
  EstimatorManagerBase::add replace LocalEnergy estimator.
  EstimatorManagerBase::add replace LocalEnergy estimator.
<optimization-report>
<vmc stage="main" blocks="400">
  Cannot make clones again. Use existing 1 clones
  Initial partition of walkers 0 1 
  Using Particle by Particle moves
  Walker moves without drift
  Total Sample Size   =256000
  Walker distribution on root = 0 1 
  Using Locality Approximation
===== Memory Usage after the buffer registration =====
Available memory on node 0, free + buffers : 83897 MB
Memory footprint by rank 0 on node 0       : 89 MB
==================================================
====================================================
  SimpleFixedNodeBranch::finalize after a VMC block
    QMC counter        = 6
    time step          = 0.15
    reference energy   = -86.5203
    reference variance = 1.01621
====================================================
  Execution time = 5.8013e+00
</vmc>
<opt stage="setup">
  <log>
   Reading configurations from h5FileRoot Cr.log.s006
  QMCCostFunction is created with 1 threads.
  Using Nonlocal PP in Opt: NonLocalECP
   Number of samples loaded to each thread : 250 
  VMC Eavg = -8.6536e+01
  VMC Evar = 1.2791e+00
  Total weights = 2.5600e+05
  Execution time = 9.9399e-01
  </log>
</opt>
<opt stage="main" walkers="256000">
  <log>

*****************************************
Building overlap and Hamiltonian matrices
*****************************************

Among totally 30 optimized parameters, largest LM parameter change : 6.3581e-02 at parameter 26

******************************************************************************
Init Cost =   1.2791e+00    New Cost =   1.2780e+00  Delta Cost =  -1.1507e-03
******************************************************************************

The new set of parameters is valid. Updating the trial wave function!

*****************************************************************************
Applying the update for shift_i =   1.0000e-02     and shift_s =   3.9062e-03
*****************************************************************************
  Execution time = 7.7226e+00
  </log>
  <optVariables href="Cr.log.s006.opt.xml">
uu_0 2.3946e-01 1 1  ON 0
uu_1 5.5023e-02 1 1  ON 1
uu_2 -2.4039e-02 1 1  ON 2
uu_3 -6.8130e-02 1 1  ON 3
uu_4 -8.0164e-02 1 1  ON 4
uu_5 -8.2344e-02 1 1  ON 5
uu_6 -5.6106e-02 1 1  ON 6
uu_7 -3.0241e-02 1 1  ON 7
uu_8 -2.6439e-03 1 1  ON 8
uu_9 6.5836e-03 1 1  ON 9
ud_0 2.8657e-01 1 1  ON 10
ud_1 6.4702e-02 1 1  ON 11
ud_2 -1.3758e-02 1 1  ON 12
ud_3 -6.3450e-02 1 1  ON 13
ud_4 -7.4558e-02 1 1  ON 14
ud_5 -7.9452e-02 1 1  ON 15
ud_6 -5.0836e-02 1 1  ON 16
ud_7 -2.4258e-02 1 1  ON 17
ud_8 -1.0207e-02 1 1  ON 18
ud_9 -1.4602e-02 1 1  ON 19
eCr_0 -1.7239e+00 1 1  ON 20
eCr_1 -7.8358e-01 1 1  ON 21
eCr_2 5.2928e-02 1 1  ON 22
eCr_3 4.7939e-01 1 1  ON 23
eCr_4 6.9394e-01 1 1  ON 24
eCr_5 6.8042e-01 1 1  ON 25
eCr_6 4.4938e-01 1 1  ON 26
eCr_7 1.5489e-01 1 1  ON 27
eCr_8 2.7405e-03 1 1  ON 28
eCr_9 -4.2939e-03 1 1  ON 29
  </optVariables>
   Restore the number of walkers to 1, removing 0 walkers.
</opt>
</optimization-report>
  QMC Execution time = 7.7318e+00 secs 
  Reusing QMCFixedSampleLinearOptimize
 Using QMCCostFunction::QMCCostFunction

=========================================================
  Start QMCFixedSampleLinearOptimize
  File Root Cr.log.s007 append = no 
=========================================================
  Skip QMCDriver::putQMCInfo 
  Resetting Properties of the walkers 1 x 13

=========================================================
  Start VMC
  File Root Cr.log.s007 append = no 
=========================================================
Using existing walkers 
  Resetting Properties of the walkers 1 x 13

<vmc function="put">
  qmc_counter=1  my_counter=6
  time step      = 1.5000e-01
  blocks         = 400
  steps          = 1
  substeps       = 5
  current        = 0
  target samples = 2.5600e+05
  walkers/mpi    = 1

  stepsbetweensamples = 1
<parameter name="blocks" condition="int">400</parameter>
<parameter name="blocks_between_recompute" condition="int">0</parameter>
<parameter name="check_properties" condition="int">100</parameter>
<parameter name="checkproperties" condition="int">100</parameter>
<parameter name="current" condition="int">0</parameter>
<parameter name="dmcwalkersperthread" condition="real">2.5000e+02</parameter>
<parameter name="maxcpusecs" condition="real">3.6000e+05</parameter>
<parameter name="record_configs" condition="int">0</parameter>
<parameter name="record_walkers" condition="int">1</parameter>
<parameter name="recordconfigs" condition="int">0</parameter>
<parameter name="recordwalkers" condition="int">1</parameter>
<parameter name="rewind" condition="int">0</parameter>
<parameter name="samples" condition="real">2.5600e+05</parameter>
<parameter name="samplesperthread" condition="real">2.5000e+02</parameter>
<parameter name="steps" condition="int">1</parameter>
<parameter name="stepsbetweensamples" condition="int">1</parameter>
<parameter name="store_configs" condition="int">0</parameter>
<parameter name="storeconfigs" condition="int">0</parameter>
<parameter name="sub_steps" condition="int">5</parameter>
<parameter name="substeps" condition="int">5</parameter>
<parameter name="tau" condition="au">1.5000e-01</parameter>
<parameter name="time_step" condition="au">1.5000e-01</parameter>
<parameter name="timestep" condition="au">1.5000e-01</parameter>
<parameter name="use_drift" condition="string">no</parameter>
<parameter name="usedrift" condition="string">no</parameter>
<parameter name="walkers" condition="int">1</parameter>
<parameter name="warmup_steps" condition="int">0</parameter>
<parameter name="warmupsteps" condition="int">0</parameter>
  DumpConfig==false Nothing (configurations, state) will be saved.
  Walker Samples are dumped every 1 steps.
</vmc>
  EstimatorManagerBase::add replace LocalEnergy estimator.
  EstimatorManagerBase::add replace LocalEnergy estimator.
<optimization-report>
<vmc stage="main" blocks="400">
  Cannot make clones again. Use existing 1 clones
  Initial partition of walkers 0 1 
  Using Particle by Particle moves
  Walker moves without drift
  Total Sample Size   =256000
  Walker distribution on root = 0 1 
  Using Locality Approximation
===== Memory Usage after the buffer registration =====
Available memory on node 0, free + buffers : 83894 MB
Memory footprint by rank 0 on node 0       : 91 MB
==================================================
====================================================
  SimpleFixedNodeBranch::finalize after a VMC block
    QMC counter        = 7
    time step          = 0.15
    reference energy   = -86.524
    reference variance = 1.21594
====================================================
  Execution time = 4.5567e+00
</vmc>
<opt stage="setup">
  <log>
   Reading configurations from h5FileRoot Cr.log.s007
  QMCCostFunction is created with 1 threads.
  Using Nonlocal PP in Opt: NonLocalECP
   Number of samples loaded to each thread : 250 
  VMC Eavg = -8.6532e+01
  VMC Evar = 1.3034e+00
  Total weights = 2.5600e+05
  Execution time = 9.4927e-01
  </log>
</opt>
<opt stage="main" walkers="256000">
  <log>

*****************************************
Building overlap and Hamiltonian matrices
*****************************************

Among totally 30 optimized parameters, largest LM parameter change : 7.3188e-02 at parameter 26

******************************************************************************
Init Cost =   1.3034e+00    New Cost =   1.3077e+00  Delta Cost =   4.3522e-03
******************************************************************************

The new set of parameters is valid. Updating the trial wave function!

*****************************************************************************
Applying the update for shift_i =   1.0000e-02     and shift_s =   3.9062e-03
*****************************************************************************
  Execution time = 6.3809e+00
  </log>
  <optVariables href="Cr.log.s007.opt.xml">
uu_0 2.4929e-01 1 1  ON 0
uu_1 6.4481e-02 1 1  ON 1
uu_2 -1.5122e-02 1 1  ON 2
uu_3 -6.0496e-02 1 1  ON 3
uu_4 -7.5300e-02 1 1  ON 4
uu_5 -8.1053e-02 1 1  ON 5
uu_6 -6.3491e-02 1 1  ON 6
uu_7 -3.2635e-02 1 1  ON 7
uu_8 -1.3178e-02 1 1  ON 8
uu_9 -1.0817e-02 1 1  ON 9
ud_0 2.9000e-01 1 1  ON 10
ud_1 6.7315e-02 1 1  ON 11
ud_2 -1.1490e-02 1 1  ON 12
ud_3 -6.0840e-02 1 1  ON 13
ud_4 -7.0357e-02 1 1  ON 14
ud_5 -7.6068e-02 1 1  ON 15
ud_6 -5.3747e-02 1 1  ON 16
ud_7 -2.6076e-02 1 1  ON 17
ud_8 -1.1511e-02 1 1  ON 18
ud_9 -2.2199e-02 1 1  ON 19
eCr_0 -1.7633e+00 1 1  ON 20
eCr_1 -8.2110e-01 1 1  ON 21
eCr_2 2.3910e-02 1 1  ON 22
eCr_3 4.5458e-01 1 1  ON 23
eCr_4 6.9098e-01 1 1  ON 24
eCr_5 7.0482e-01 1 1  ON 25
eCr_6 5.2257e-01 1 1  ON 26
eCr_7 1.9014e-01 1 1  ON 27
eCr_8 7.3750e-03 1 1  ON 28
eCr_9 -7.9497e-03 1 1  ON 29
  </optVariables>
   Restore the number of walkers to 1, removing 0 walkers.
</opt>
</optimization-report>
  QMC Execution time = 6.3897e+00 secs 
  Reusing QMCFixedSampleLinearOptimize
 Using QMCCostFunction::QMCCostFunction

=========================================================
  Start QMCFixedSampleLinearOptimize
  File Root Cr.log.s008 append = no 
=========================================================
  Skip QMCDriver::putQMCInfo 
  Resetting Properties of the walkers 1 x 13

=========================================================
  Start VMC
  File Root Cr.log.s008 append = no 
=========================================================
Using existing walkers 
  Resetting Properties of the walkers 1 x 13

<vmc function="put">
  qmc_counter=2  my_counter=7
  time step      = 1.5000e-01
  blocks         = 400
  steps          = 1
  substeps       = 5
  current        = 0
  target samples = 2.5600e+05
  walkers/mpi    = 1

  stepsbetweensamples = 1
<parameter name="blocks" condition="int">400</parameter>
<parameter name="blocks_between_recompute" condition="int">0</parameter>
<parameter name="check_properties" condition="int">100</parameter>
<parameter name="checkproperties" condition="int">100</parameter>
<parameter name="current" condition="int">0</parameter>
<parameter name="dmcwalkersperthread" condition="real">2.5000e+02</parameter>
<parameter name="maxcpusecs" condition="real">3.6000e+05</parameter>
<parameter name="record_configs" condition="int">0</parameter>
<parameter name="record_walkers" condition="int">1</parameter>
<parameter name="recordconfigs" condition="int">0</parameter>
<parameter name="recordwalkers" condition="int">1</parameter>
<parameter name="rewind" condition="int">0</parameter>
<parameter name="samples" condition="real">2.5600e+05</parameter>
<parameter name="samplesperthread" condition="real">2.5000e+02</parameter>
<parameter name="steps" condition="int">1</parameter>
<parameter name="stepsbetweensamples" condition="int">1</parameter>
<parameter name="store_configs" condition="int">0</parameter>
<parameter name="storeconfigs" condition="int">0</parameter>
<parameter name="sub_steps" condition="int">5</parameter>
<parameter name="substeps" condition="int">5</parameter>
<parameter name="tau" condition="au">1.5000e-01</parameter>
<parameter name="time_step" condition="au">1.5000e-01</parameter>
<parameter name="timestep" condition="au">1.5000e-01</parameter>
<parameter name="use_drift" condition="string">no</parameter>
<parameter name="usedrift" condition="string">no</parameter>
<parameter name="walkers" condition="int">1</parameter>
<parameter name="warmup_steps" condition="int">0</parameter>
<parameter name="warmupsteps" condition="int">0</parameter>
  DumpConfig==false Nothing (configurations, state) will be saved.
  Walker Samples are dumped every 1 steps.
</vmc>
  EstimatorManagerBase::add replace LocalEnergy estimator.
  EstimatorManagerBase::add replace LocalEnergy estimator.
<optimization-report>
<vmc stage="main" blocks="400">
  Cannot make clones again. Use existing 1 clones
  Initial partition of walkers 0 1 
  Using Particle by Particle moves
  Walker moves without drift
  Total Sample Size   =256000
  Walker distribution on root = 0 1 
  Using Locality Approximation
===== Memory Usage after the buffer registration =====
Available memory on node 0, free + buffers : 83891 MB
Memory footprint by rank 0 on node 0       : 94 MB
==================================================
====================================================
  SimpleFixedNodeBranch::finalize after a VMC block
    QMC counter        = 8
    time step          = 0.15
    reference energy   = -86.5407
    reference variance = 1.0405
====================================================
  Execution time = 4.4443e+00
</vmc>
<opt stage="setup">
  <log>
   Reading configurations from h5FileRoot Cr.log.s008
  QMCCostFunction is created with 1 threads.
  Using Nonlocal PP in Opt: NonLocalECP
   Number of samples loaded to each thread : 250 
  VMC Eavg = -8.6533e+01
  VMC Evar = 1.2584e+00
  Total weights = 2.5600e+05
  Execution time = 8.7984e-01
  </log>
</opt>
<opt stage="main" walkers="256000">
  <log>

*****************************************
Building overlap and Hamiltonian matrices
*****************************************

Among totally 30 optimized parameters, largest LM parameter change : 4.1550e-02 at parameter 26

******************************************************************************
Init Cost =   1.2584e+00    New Cost =   1.2622e+00  Delta Cost =   3.7908e-03
******************************************************************************

The new set of parameters is valid. Updating the trial wave function!

*****************************************************************************
Applying the update for shift_i =   1.0000e-02     and shift_s =   3.9062e-03
*****************************************************************************
  Execution time = 6.1584e+00
  </log>
  <optVariables href="Cr.log.s008.opt.xml">
uu_0 2.5121e-01 1 1  ON 0
uu_1 6.5510e-02 1 1  ON 1
uu_2 -1.3872e-02 1 1  ON 2
uu_3 -6.0831e-02 1 1  ON 3
uu_4 -7.4848e-02 1 1  ON 4
uu_5 -8.3228e-02 1 1  ON 5
uu_6 -6.8656e-02 1 1  ON 6
uu_7 -4.3448e-02 1 1  ON 7
uu_8 -1.7202e-02 1 1  ON 8
uu_9 -1.4763e-02 1 1  ON 9
ud_0 2.9576e-01 1 1  ON 10
ud_1 7.2379e-02 1 1  ON 11
ud_2 -5.9815e-03 1 1  ON 12
ud_3 -5.7913e-02 1 1  ON 13
ud_4 -7.1098e-02 1 1  ON 14
ud_5 -7.9829e-02 1 1  ON 15
ud_6 -6.4781e-02 1 1  ON 16
ud_7 -3.9240e-02 1 1  ON 17
ud_8 -1.3611e-02 1 1  ON 18
ud_9 -1.5595e-02 1 1  ON 19
eCr_0 -1.8014e+00 1 1  ON 20
eCr_1 -8.5739e-01 1 1  ON 21
eCr_2 -7.4996e-03 1 1  ON 22
eCr_3 4.3944e-01 1 1  ON 23
eCr_4 6.9031e-01 1 1  ON 24
eCr_5 7.3855e-01 1 1  ON 25
eCr_6 5.6412e-01 1 1  ON 26
eCr_7 2.2591e-01 1 1  ON 27
eCr_8 1.6707e-02 1 1  ON 28
eCr_9 -9.1930e-03 1 1  ON 29
  </optVariables>
   Restore the number of walkers to 1, removing 0 walkers.
</opt>
</optimization-report>
  QMC Execution time = 6.1679e+00 secs 
  Reusing QMCFixedSampleLinearOptimize
 Using QMCCostFunction::QMCCostFunction

=========================================================
  Start QMCFixedSampleLinearOptimize
  File Root Cr.log.s009 append = no 
=========================================================
  Skip QMCDriver::putQMCInfo 
  Resetting Properties of the walkers 1 x 13

=========================================================
  Start VMC
  File Root Cr.log.s009 append = no 
=========================================================
Using existing walkers 
  Resetting Properties of the walkers 1 x 13

<vmc function="put">
  qmc_counter=3  my_counter=8
  time step      = 1.5000e-01
  blocks         = 400
  steps          = 1
  substeps       = 5
  current        = 0
  target samples = 2.5600e+05
  walkers/mpi    = 1

  stepsbetweensamples = 1
<parameter name="blocks" condition="int">400</parameter>
<parameter name="blocks_between_recompute" condition="int">0</parameter>
<parameter name="check_properties" condition="int">100</parameter>
<parameter name="checkproperties" condition="int">100</parameter>
<parameter name="current" condition="int">0</parameter>
<parameter name="dmcwalkersperthread" condition="real">2.5000e+02</parameter>
<parameter name="maxcpusecs" condition="real">3.6000e+05</parameter>
<parameter name="record_configs" condition="int">0</parameter>
<parameter name="record_walkers" condition="int">1</parameter>
<parameter name="recordconfigs" condition="int">0</parameter>
<parameter name="recordwalkers" condition="int">1</parameter>
<parameter name="rewind" condition="int">0</parameter>
<parameter name="samples" condition="real">2.5600e+05</parameter>
<parameter name="samplesperthread" condition="real">2.5000e+02</parameter>
<parameter name="steps" condition="int">1</parameter>
<parameter name="stepsbetweensamples" condition="int">1</parameter>
<parameter name="store_configs" condition="int">0</parameter>
<parameter name="storeconfigs" condition="int">0</parameter>
<parameter name="sub_steps" condition="int">5</parameter>
<parameter name="substeps" condition="int">5</parameter>
<parameter name="tau" condition="au">1.5000e-01</parameter>
<parameter name="time_step" condition="au">1.5000e-01</parameter>
<parameter name="timestep" condition="au">1.5000e-01</parameter>
<parameter name="use_drift" condition="string">no</parameter>
<parameter name="usedrift" condition="string">no</parameter>
<parameter name="walkers" condition="int">1</parameter>
<parameter name="warmup_steps" condition="int">0</parameter>
<parameter name="warmupsteps" condition="int">0</parameter>
  DumpConfig==false Nothing (configurations, state) will be saved.
  Walker Samples are dumped every 1 steps.
</vmc>
  EstimatorManagerBase::add replace LocalEnergy estimator.
  EstimatorManagerBase::add replace LocalEnergy estimator.
<optimization-report>
<vmc stage="main" blocks="400">
  Cannot make clones again. Use existing 1 clones
  Initial partition of walkers 0 1 
  Using Particle by Particle moves
  Walker moves without drift
  Total Sample Size   =256000
  Walker distribution on root = 0 1 
  Using Locality Approximation
===== Memory Usage after the buffer registration =====
Available memory on node 0, free + buffers : 83888 MB
Memory footprint by rank 0 on node 0       : 96 MB
==================================================
====================================================
  SimpleFixedNodeBranch::finalize after a VMC block
    QMC counter        = 9
    time step          = 0.15
    reference energy   = -86.4699
    reference variance = 1.10663
====================================================
  Execution time = 4.3220e+00
</vmc>
<opt stage="setup">
  <log>
   Reading configurations from h5FileRoot Cr.log.s009
  QMCCostFunction is created with 1 threads.
  Using Nonlocal PP in Opt: NonLocalECP
   Number of samples loaded to each thread : 250 
  VMC Eavg = -8.6531e+01
  VMC Evar = 1.2534e+00
  Total weights = 2.5600e+05
  Execution time = 8.3551e-01
  </log>
</opt>
<opt stage="main" walkers="256000">
  <log>

*****************************************
Building overlap and Hamiltonian matrices
*****************************************

Among totally 30 optimized parameters, largest LM parameter change : 4.1764e-02 at parameter 27

******************************************************************************
Init Cost =   1.2534e+00    New Cost =   1.2549e+00  Delta Cost =   1.4703e-03
******************************************************************************

The new set of parameters is valid. Updating the trial wave function!

*****************************************************************************
Applying the update for shift_i =   1.0000e-02     and shift_s =   3.9062e-03
*****************************************************************************
  Execution time = 5.9198e+00
  </log>
  <optVariables href="Cr.log.s009.opt.xml">
uu_0 2.5046e-01 1 1  ON 0
uu_1 6.5352e-02 1 1  ON 1
uu_2 -1.4453e-02 1 1  ON 2
uu_3 -6.0703e-02 1 1  ON 3
uu_4 -7.7387e-02 1 1  ON 4
uu_5 -8.5663e-02 1 1  ON 5
uu_6 -6.8482e-02 1 1  ON 6
uu_7 -4.6690e-02 1 1  ON 7
uu_8 -8.1309e-03 1 1  ON 8
uu_9 -2.4226e-02 1 1  ON 9
ud_0 2.9509e-01 1 1  ON 10
ud_1 7.1322e-02 1 1  ON 11
ud_2 -8.0408e-03 1 1  ON 12
ud_3 -5.8402e-02 1 1  ON 13
ud_4 -7.0834e-02 1 1  ON 14
ud_5 -8.1492e-02 1 1  ON 15
ud_6 -6.6637e-02 1 1  ON 16
ud_7 -3.5343e-02 1 1  ON 17
ud_8 -7.1536e-03 1 1  ON 18
ud_9 -1.9674e-02 1 1  ON 19
eCr_0 -1.8278e+00 1 1  ON 20
eCr_1 -8.8238e-01 1 1  ON 21
eCr_2 -3.1264e-02 1 1  ON 22
eCr_3 4.1935e-01 1 1  ON 23
eCr_4 6.8902e-01 1 1  ON 24
eCr_5 7.4518e-01 1 1  ON 25
eCr_6 6.0058e-01 1 1  ON 26
eCr_7 2.6767e-01 1 1  ON 27
eCr_8 3.2817e-02 1 1  ON 28
eCr_9 -1.4827e-02 1 1  ON 29
  </optVariables>
   Restore the number of walkers to 1, removing 0 walkers.
</opt>
</optimization-report>
  QMC Execution time = 5.9299e+00 secs 
  Reusing QMCFixedSampleLinearOptimize
 Using QMCCostFunction::QMCCostFunction

=========================================================
  Start QMCFixedSampleLinearOptimize
  File Root Cr.log.s010 append = no 
=========================================================
  Skip QMCDriver::putQMCInfo 
  Resetting Properties of the walkers 1 x 13

=========================================================
  Start VMC
  File Root Cr.log.s010 append = no 
=========================================================
Using existing walkers 
  Resetting Properties of the walkers 1 x 13

<vmc function="put">
  qmc_counter=4  my_counter=9
  time step      = 1.5000e-01
  blocks         = 400
  steps          = 1
  substeps       = 5
  current        = 0
  target samples = 2.5600e+05
  walkers/mpi    = 1

  stepsbetweensamples = 1
<parameter name="blocks" condition="int">400</parameter>
<parameter name="blocks_between_recompute" condition="int">0</parameter>
<parameter name="check_properties" condition="int">100</parameter>
<parameter name="checkproperties" condition="int">100</parameter>
<parameter name="current" condition="int">0</parameter>
<parameter name="dmcwalkersperthread" condition="real">2.5000e+02</parameter>
<parameter name="maxcpusecs" condition="real">3.6000e+05</parameter>
<parameter name="record_configs" condition="int">0</parameter>
<parameter name="record_walkers" condition="int">1</parameter>
<parameter name="recordconfigs" condition="int">0</parameter>
<parameter name="recordwalkers" condition="int">1</parameter>
<parameter name="rewind" condition="int">0</parameter>
<parameter name="samples" condition="real">2.5600e+05</parameter>
<parameter name="samplesperthread" condition="real">2.5000e+02</parameter>
<parameter name="steps" condition="int">1</parameter>
<parameter name="stepsbetweensamples" condition="int">1</parameter>
<parameter name="store_configs" condition="int">0</parameter>
<parameter name="storeconfigs" condition="int">0</parameter>
<parameter name="sub_steps" condition="int">5</parameter>
<parameter name="substeps" condition="int">5</parameter>
<parameter name="tau" condition="au">1.5000e-01</parameter>
<parameter name="time_step" condition="au">1.5000e-01</parameter>
<parameter name="timestep" condition="au">1.5000e-01</parameter>
<parameter name="use_drift" condition="string">no</parameter>
<parameter name="usedrift" condition="string">no</parameter>
<parameter name="walkers" condition="int">1</parameter>
<parameter name="warmup_steps" condition="int">0</parameter>
<parameter name="warmupsteps" condition="int">0</parameter>
  DumpConfig==false Nothing (configurations, state) will be saved.
  Walker Samples are dumped every 1 steps.
</vmc>
  EstimatorManagerBase::add replace LocalEnergy estimator.
  EstimatorManagerBase::add replace LocalEnergy estimator.
<optimization-report>
<vmc stage="main" blocks="400">
  Cannot make clones again. Use existing 1 clones
  Initial partition of walkers 0 1 
  Using Particle by Particle moves
  Walker moves without drift
  Total Sample Size   =256000
  Walker distribution on root = 0 1 
  Using Locality Approximation
===== Memory Usage after the buffer registration =====
Available memory on node 0, free + buffers : 83885 MB
Memory footprint by rank 0 on node 0       : 99 MB
==================================================
====================================================
  SimpleFixedNodeBranch::finalize after a VMC block
    QMC counter        = 10
    time step          = 0.15
    reference energy   = -86.4735
    reference variance = 1.3624
====================================================
  Execution time = 4.2373e+00
</vmc>
<opt stage="setup">
  <log>
   Reading configurations from h5FileRoot Cr.log.s010
  QMCCostFunction is created with 1 threads.
  Using Nonlocal PP in Opt: NonLocalECP
   Number of samples loaded to each thread : 250 
  VMC Eavg = -8.6533e+01
  VMC Evar = 1.2542e+00
  Total weights = 2.5600e+05
  Execution time = 8.0117e-01
  </log>
</opt>
<opt stage="main" walkers="256000">
  <log>

*****************************************
Building overlap and Hamiltonian matrices
*****************************************

Among totally 30 optimized parameters, largest LM parameter change : 3.6237e-02 at parameter 26

******************************************************************************
Init Cost =   1.2542e+00    New Cost =   1.2560e+00  Delta Cost =   1.7737e-03
******************************************************************************

The new set of parameters is valid. Updating the trial wave function!

*****************************************************************************
Applying the update for shift_i =   1.0000e-02     and shift_s =   3.9062e-03
*****************************************************************************
  Execution time = 5.7712e+00
  </log>
  <optVariables href="Cr.log.s010.opt.xml">
uu_0 2.5212e-01 1 1  ON 0
uu_1 6.6710e-02 1 1  ON 1
uu_2 -1.3817e-02 1 1  ON 2
uu_3 -6.0315e-02 1 1  ON 3
uu_4 -7.5756e-02 1 1  ON 4
uu_5 -8.6309e-02 1 1  ON 5
uu_6 -7.5211e-02 1 1  ON 6
uu_7 -5.1369e-02 1 1  ON 7
uu_8 -1.1697e-02 1 1  ON 8
uu_9 -1.1650e-02 1 1  ON 9
ud_0 2.9535e-01 1 1  ON 10
ud_1 7.1710e-02 1 1  ON 11
ud_2 -7.1517e-03 1 1  ON 12
ud_3 -5.8578e-02 1 1  ON 13
ud_4 -7.4011e-02 1 1  ON 14
ud_5 -8.4931e-02 1 1  ON 15
ud_6 -6.2621e-02 1 1  ON 16
ud_7 -3.8169e-02 1 1  ON 17
ud_8 -6.3007e-03 1 1  ON 18
ud_9 -1.5797e-02 1 1  ON 19
eCr_0 -1.8532e+00 1 1  ON 20
eCr_1 -9.0476e-01 1 1  ON 21
eCr_2 -5.2084e-02 1 1  ON 22
eCr_3 4.0250e-01 1 1  ON 23
eCr_4 6.7988e-01 1 1  ON 24
eCr_5 7.5973e-01 1 1  ON 25
eCr_6 6.3682e-01 1 1  ON 26
eCr_7 3.0116e-01 1 1  ON 27
eCr_8 4.4536e-02 1 1  ON 28
eCr_9 -1.6161e-02 1 1  ON 29
  </optVariables>
   Restore the number of walkers to 1, removing 0 walkers.
</opt>
</optimization-report>
  QMC Execution time = 5.7800e+00 secs 
Loop execution max-interations = 10
  Reusing QMCFixedSampleLinearOptimize
 Using QMCCostFunction::QMCCostFunction

=========================================================
  Start QMCFixedSampleLinearOptimize
  File Root Cr.log.s011 append = no 
=========================================================
  Skip QMCDriver::putQMCInfo 
  Resetting Properties of the walkers 1 x 13

=========================================================
  Start VMC
  File Root Cr.log.s011 append = no 
=========================================================
  Using the current 1 walkers.
  Total number of walkers: 1.0240e+03
  Total weight: 1.0240e+03
  Resetting Properties of the walkers 1 x 13

<vmc function="put">
  qmc_counter=0  my_counter=10
  time step      = 1.5000e-01
  blocks         = 400
  steps          = 2
  substeps       = 5
  current        = 0
  target samples = 5.1200e+05
  walkers/mpi    = 1

  stepsbetweensamples = 1
<parameter name="blocks" condition="int">400</parameter>
<parameter name="blocks_between_recompute" condition="int">0</parameter>
<parameter name="check_properties" condition="int">100</parameter>
<parameter name="checkproperties" condition="int">100</parameter>
<parameter name="current" condition="int">0</parameter>
<parameter name="dmcwalkersperthread" condition="real">5.0000e+02</parameter>
<parameter name="maxcpusecs" condition="real">3.6000e+05</parameter>
<parameter name="record_configs" condition="int">0</parameter>
<parameter name="record_walkers" condition="int">1</parameter>
<parameter name="recordconfigs" condition="int">0</parameter>
<parameter name="recordwalkers" condition="int">1</parameter>
<parameter name="rewind" condition="int">0</parameter>
<parameter name="samples" condition="real">5.1200e+05</parameter>
<parameter name="samplesperthread" condition="real">5.0000e+02</parameter>
<parameter name="steps" condition="int">2</parameter>
<parameter name="stepsbetweensamples" condition="int">1</parameter>
<parameter name="store_configs" condition="int">0</parameter>
<parameter name="storeconfigs" condition="int">0</parameter>
<parameter name="sub_steps" condition="int">5</parameter>
<parameter name="substeps" condition="int">5</parameter>
<parameter name="tau" condition="au">1.5000e-01</parameter>
<parameter name="time_step" condition="au">1.5000e-01</parameter>
<parameter name="timestep" condition="au">1.5000e-01</parameter>
<parameter name="use_drift" condition="string">no</parameter>
<parameter name="usedrift" condition="string">no</parameter>
<parameter name="walkers" condition="int">1</parameter>
<parameter name="warmup_steps" condition="int">0</parameter>
<parameter name="warmupsteps" condition="int">0</parameter>
  DumpConfig==false Nothing (configurations, state) will be saved.
  Walker Samples are dumped every 1 steps.
</vmc>
  EstimatorManagerBase::add replace LocalEnergy estimator.
  EstimatorManagerBase::add replace LocalEnergy estimator.
<optimization-report>
<vmc stage="main" blocks="400">
  Cannot make clones again. Use existing 1 clones
  Initial partition of walkers 0 1 
  Using Particle by Particle moves
  Walker moves without drift
  Total Sample Size   =512000
  Walker distribution on root = 0 1 
  Using Locality Approximation
===== Memory Usage after the buffer registration =====
Available memory on node 0, free + buffers : 83882 MB
Memory footprint by rank 0 on node 0       : 102 MB
==================================================
====================================================
  SimpleFixedNodeBranch::finalize after a VMC block
    QMC counter        = 11
    time step          = 0.15
    reference energy   = -86.5834
    reference variance = 0.938375
====================================================
  Execution time = 6.0909e+00
</vmc>
<opt stage="setup">
  <log>
   Reading configurations from h5FileRoot Cr.log.s011
  QMCCostFunction is created with 1 threads.
  Using Nonlocal PP in Opt: NonLocalECP
   Number of samples loaded to each thread : 500 
  VMC Eavg = -8.6533e+01
  VMC Evar = 1.3079e+00
  Total weights = 5.1200e+05
  Execution time = 1.5150e+00
  </log>
</opt>
<opt stage="main" walkers="512000">
  <log>

*****************************************
Building overlap and Hamiltonian matrices
*****************************************

Among totally 30 optimized parameters, largest LM parameter change : 3.0869e-02 at parameter 27

******************************************************************************
Init Cost =  -8.2141e+01    New Cost =  -8.2141e+01  Delta Cost =  -1.5327e-04
******************************************************************************

The new set of parameters is valid. Updating the trial wave function!

*****************************************************************************
Applying the update for shift_i =   1.0000e-02     and shift_s =   3.9062e-03
*****************************************************************************
  Execution time = 9.0330e+00
  </log>
  <optVariables href="Cr.log.s011.opt.xml">
uu_0 2.4760e-01 1 1  ON 0
uu_1 6.1422e-02 1 1  ON 1
uu_2 -1.8370e-02 1 1  ON 2
uu_3 -6.5474e-02 1 1  ON 3
uu_4 -8.2371e-02 1 1  ON 4
uu_5 -9.4596e-02 1 1  ON 5
uu_6 -8.6810e-02 1 1  ON 6
uu_7 -5.8223e-02 1 1  ON 7
uu_8 -1.9737e-02 1 1  ON 8
uu_9 1.7033e-03 1 1  ON 9
ud_0 2.9437e-01 1 1  ON 10
ud_1 7.0746e-02 1 1  ON 11
ud_2 -8.1190e-03 1 1  ON 12
ud_3 -5.9736e-02 1 1  ON 13
ud_4 -7.3777e-02 1 1  ON 14
ud_5 -8.9527e-02 1 1  ON 15
ud_6 -7.4162e-02 1 1  ON 16
ud_7 -4.5355e-02 1 1  ON 17
ud_8 -4.4200e-03 1 1  ON 18
ud_9 -1.0503e-02 1 1  ON 19
eCr_0 -1.8756e+00 1 1  ON 20
eCr_1 -9.2702e-01 1 1  ON 21
eCr_2 -7.4992e-02 1 1  ON 22
eCr_3 3.8965e-01 1 1  ON 23
eCr_4 6.7095e-01 1 1  ON 24
eCr_5 7.7048e-01 1 1  ON 25
eCr_6 6.6667e-01 1 1  ON 26
eCr_7 3.3203e-01 1 1  ON 27
eCr_8 5.5103e-02 1 1  ON 28
eCr_9 -1.3862e-02 1 1  ON 29
  </optVariables>
   Restore the number of walkers to 1, removing 0 walkers.
</opt>
</optimization-report>
  QMC Execution time = 9.0421e+00 secs 
  Reusing QMCFixedSampleLinearOptimize
 Using QMCCostFunction::QMCCostFunction

=========================================================
  Start QMCFixedSampleLinearOptimize
  File Root Cr.log.s012 append = no 
=========================================================
  Skip QMCDriver::putQMCInfo 
  Resetting Properties of the walkers 1 x 13

=========================================================
  Start VMC
  File Root Cr.log.s012 append = no 
=========================================================
Using existing walkers 
  Resetting Properties of the walkers 1 x 13

<vmc function="put">
  qmc_counter=1  my_counter=11
  time step      = 1.5000e-01
  blocks         = 400
  steps          = 2
  substeps       = 5
  current        = 0
  target samples = 5.1200e+05
  walkers/mpi    = 1

  stepsbetweensamples = 1
<parameter name="blocks" condition="int">400</parameter>
<parameter name="blocks_between_recompute" condition="int">0</parameter>
<parameter name="check_properties" condition="int">100</parameter>
<parameter name="checkproperties" condition="int">100</parameter>
<parameter name="current" condition="int">0</parameter>
<parameter name="dmcwalkersperthread" condition="real">5.0000e+02</parameter>
<parameter name="maxcpusecs" condition="real">3.6000e+05</parameter>
<parameter name="record_configs" condition="int">0</parameter>
<parameter name="record_walkers" condition="int">1</parameter>
<parameter name="recordconfigs" condition="int">0</parameter>
<parameter name="recordwalkers" condition="int">1</parameter>
<parameter name="rewind" condition="int">0</parameter>
<parameter name="samples" condition="real">5.1200e+05</parameter>
<parameter name="samplesperthread" condition="real">5.0000e+02</parameter>
<parameter name="steps" condition="int">2</parameter>
<parameter name="stepsbetweensamples" condition="int">1</parameter>
<parameter name="store_configs" condition="int">0</parameter>
<parameter name="storeconfigs" condition="int">0</parameter>
<parameter name="sub_steps" condition="int">5</parameter>
<parameter name="substeps" condition="int">5</parameter>
<parameter name="tau" condition="au">1.5000e-01</parameter>
[...]
  <log>
   Reading configurations from h5FileRoot Cr.log.s017
  QMCCostFunction is created with 1 threads.
  Using Nonlocal PP in Opt: NonLocalECP
   Number of samples loaded to each thread : 500 
  VMC Eavg = -8.6534e+01
  VMC Evar = 1.3143e+00
  Total weights = 5.1200e+05
  Execution time = 1.3594e+00
  </log>
</opt>
<opt stage="main" walkers="512000">
  <log>

*****************************************
Building overlap and Hamiltonian matrices
*****************************************

Among totally 30 optimized parameters, largest LM parameter change : 2.7835e-02 at parameter 27

******************************************************************************
Init Cost =  -8.2141e+01    New Cost =  -8.2141e+01  Delta Cost =  -1.0340e-04
******************************************************************************

The new set of parameters is valid. Updating the trial wave function!

*****************************************************************************
Applying the update for shift_i =   1.0000e-02     and shift_s =   3.9062e-03
*****************************************************************************
  Execution time = 8.5239e+00
  </log>
  <optVariables href="Cr.log.s017.opt.xml">
uu_0 2.6160e-01 1 1  ON 0
uu_1 7.6032e-02 1 1  ON 1
uu_2 -3.8078e-03 1 1  ON 2
uu_3 -5.1515e-02 1 1  ON 3
uu_4 -6.9393e-02 1 1  ON 4
uu_5 -8.2991e-02 1 1  ON 5
uu_6 -7.7903e-02 1 1  ON 6
uu_7 -6.0389e-02 1 1  ON 7
uu_8 -2.7076e-02 1 1  ON 8
uu_9 -1.4769e-02 1 1  ON 9
ud_0 3.0751e-01 1 1  ON 10
ud_1 8.3770e-02 1 1  ON 11
ud_2 4.3357e-03 1 1  ON 12
ud_3 -4.7120e-02 1 1  ON 13
ud_4 -6.2911e-02 1 1  ON 14
ud_5 -8.3949e-02 1 1  ON 15
ud_6 -7.6867e-02 1 1  ON 16
ud_7 -5.1392e-02 1 1  ON 17
ud_8 -1.3499e-02 1 1  ON 18
ud_9 -1.0436e-03 1 1  ON 19
eCr_0 -1.9506e+00 1 1  ON 20
eCr_1 -1.0014e+00 1 1  ON 21
eCr_2 -1.4507e-01 1 1  ON 22
eCr_3 3.2957e-01 1 1  ON 23
eCr_4 6.3432e-01 1 1  ON 24
eCr_5 7.7977e-01 1 1  ON 25
eCr_6 7.5526e-01 1 1  ON 26
eCr_7 4.8250e-01 1 1  ON 27
eCr_8 1.3044e-01 1 1  ON 28
eCr_9 -1.0200e-02 1 1  ON 29
  </optVariables>
   Restore the number of walkers to 1, removing 0 walkers.
</opt>
</optimization-report>
  QMC Execution time = 8.5330e+00 secs 
  Reusing QMCFixedSampleLinearOptimize
 Using QMCCostFunction::QMCCostFunction

=========================================================
  Start QMCFixedSampleLinearOptimize
  File Root Cr.log.s018 append = no 
=========================================================
  Skip QMCDriver::putQMCInfo 
  Resetting Properties of the walkers 1 x 13

=========================================================
  Start VMC
  File Root Cr.log.s018 append = no 
=========================================================
Using existing walkers 
  Resetting Properties of the walkers 1 x 13

<vmc function="put">
  qmc_counter=7  my_counter=17
  time step      = 1.5000e-01
  blocks         = 400
  steps          = 2
  substeps       = 5
  current        = 0
  target samples = 5.1200e+05
  walkers/mpi    = 1

  stepsbetweensamples = 1
<parameter name="blocks" condition="int">400</parameter>
<parameter name="blocks_between_recompute" condition="int">0</parameter>
<parameter name="check_properties" condition="int">100</parameter>
<parameter name="checkproperties" condition="int">100</parameter>
<parameter name="current" condition="int">0</parameter>
<parameter name="dmcwalkersperthread" condition="real">5.0000e+02</parameter>
<parameter name="maxcpusecs" condition="real">3.6000e+05</parameter>
<parameter name="record_configs" condition="int">0</parameter>
<parameter name="record_walkers" condition="int">1</parameter>
<parameter name="recordconfigs" condition="int">0</parameter>
<parameter name="recordwalkers" condition="int">1</parameter>
<parameter name="rewind" condition="int">0</parameter>
<parameter name="samples" condition="real">5.1200e+05</parameter>
<parameter name="samplesperthread" condition="real">5.0000e+02</parameter>
<parameter name="steps" condition="int">2</parameter>
<parameter name="stepsbetweensamples" condition="int">1</parameter>
<parameter name="store_configs" condition="int">0</parameter>
<parameter name="storeconfigs" condition="int">0</parameter>
<parameter name="sub_steps" condition="int">5</parameter>
<parameter name="substeps" condition="int">5</parameter>
<parameter name="tau" condition="au">1.5000e-01</parameter>
<parameter name="time_step" condition="au">1.5000e-01</parameter>
<parameter name="timestep" condition="au">1.5000e-01</parameter>
<parameter name="use_drift" condition="string">no</parameter>
<parameter name="usedrift" condition="string">no</parameter>
<parameter name="walkers" condition="int">1</parameter>
<parameter name="warmup_steps" condition="int">0</parameter>
<parameter name="warmupsteps" condition="int">0</parameter>
  DumpConfig==false Nothing (configurations, state) will be saved.
  Walker Samples are dumped every 1 steps.
</vmc>
  EstimatorManagerBase::add replace LocalEnergy estimator.
  EstimatorManagerBase::add replace LocalEnergy estimator.
<optimization-report>
<vmc stage="main" blocks="400">
  Cannot make clones again. Use existing 1 clones
  Initial partition of walkers 0 1 
  Using Particle by Particle moves
  Walker moves without drift
  Total Sample Size   =512000
  Walker distribution on root = 0 1 
  Using Locality Approximation
===== Memory Usage after the buffer registration =====
Available memory on node 0, free + buffers : 83818 MB
Memory footprint by rank 0 on node 0       : 121 MB
==================================================
====================================================
  SimpleFixedNodeBranch::finalize after a VMC block
    QMC counter        = 18
    time step          = 0.15
    reference energy   = -86.5147
    reference variance = 1.29812
====================================================
  Execution time = 5.9265e+00
</vmc>
<opt stage="setup">
  <log>
   Reading configurations from h5FileRoot Cr.log.s018
  QMCCostFunction is created with 1 threads.
  Using Nonlocal PP in Opt: NonLocalECP
   Number of samples loaded to each thread : 500 
  VMC Eavg = -8.6533e+01
  VMC Evar = 1.2665e+00
  Total weights = 5.1200e+05
  Execution time = 1.2979e+00
  </log>
</opt>
<opt stage="main" walkers="512000">
  <log>

*****************************************
Building overlap and Hamiltonian matrices
*****************************************

Among totally 30 optimized parameters, largest LM parameter change : 2.1343e-02 at parameter 27

******************************************************************************
Init Cost =  -8.2143e+01    New Cost =  -8.2143e+01  Delta Cost =  -2.0032e-05
******************************************************************************

The new set of parameters is valid. Updating the trial wave function!

*****************************************************************************
Applying the update for shift_i =   1.0000e-02     and shift_s =   3.9062e-03
*****************************************************************************
  Execution time = 8.4394e+00
  </log>
  <optVariables href="Cr.log.s018.opt.xml">
uu_0 2.6534e-01 1 1  ON 0
uu_1 8.0182e-02 1 1  ON 1
uu_2 -9.3577e-04 1 1  ON 2
uu_3 -4.8918e-02 1 1  ON 3
uu_4 -6.7325e-02 1 1  ON 4
uu_5 -8.2880e-02 1 1  ON 5
uu_6 -7.7512e-02 1 1  ON 6
uu_7 -6.3540e-02 1 1  ON 7
uu_8 -2.7618e-02 1 1  ON 8
uu_9 -1.5342e-02 1 1  ON 9
ud_0 3.1036e-01 1 1  ON 10
ud_1 8.6708e-02 1 1  ON 11
ud_2 6.6553e-03 1 1  ON 12
ud_3 -4.5215e-02 1 1  ON 13
ud_4 -6.2253e-02 1 1  ON 14
ud_5 -8.0059e-02 1 1  ON 15
ud_6 -7.5423e-02 1 1  ON 16
ud_7 -6.0573e-02 1 1  ON 17
ud_8 -1.2029e-02 1 1  ON 18
ud_9 -5.0821e-03 1 1  ON 19
eCr_0 -1.9676e+00 1 1  ON 20
eCr_1 -1.0162e+00 1 1  ON 21
eCr_2 -1.5121e-01 1 1  ON 22
eCr_3 3.2293e-01 1 1  ON 23
eCr_4 6.3064e-01 1 1  ON 24
eCr_5 7.8341e-01 1 1  ON 25
eCr_6 7.6210e-01 1 1  ON 26
eCr_7 5.0384e-01 1 1  ON 27
eCr_8 1.4909e-01 1 1  ON 28
eCr_9 -1.1838e-02 1 1  ON 29
  </optVariables>
   Restore the number of walkers to 1, removing 0 walkers.
</opt>
</optimization-report>
  QMC Execution time = 8.4491e+00 secs 
  Reusing QMCFixedSampleLinearOptimize
 Using QMCCostFunction::QMCCostFunction

=========================================================
  Start QMCFixedSampleLinearOptimize
  File Root Cr.log.s019 append = no 
=========================================================
  Skip QMCDriver::putQMCInfo 
  Resetting Properties of the walkers 1 x 13

=========================================================
  Start VMC
  File Root Cr.log.s019 append = no 
=========================================================
Using existing walkers 
  Resetting Properties of the walkers 1 x 13

<vmc function="put">
  qmc_counter=8  my_counter=18
  time step      = 1.5000e-01
  blocks         = 400
  steps          = 2
  substeps       = 5
  current        = 0
  target samples = 5.1200e+05
  walkers/mpi    = 1

  stepsbetweensamples = 1
<parameter name="blocks" condition="int">400</parameter>
<parameter name="blocks_between_recompute" condition="int">0</parameter>
<parameter name="check_properties" condition="int">100</parameter>
<parameter name="checkproperties" condition="int">100</parameter>
<parameter name="current" condition="int">0</parameter>
<parameter name="dmcwalkersperthread" condition="real">5.0000e+02</parameter>
<parameter name="maxcpusecs" condition="real">3.6000e+05</parameter>
<parameter name="record_configs" condition="int">0</parameter>
<parameter name="record_walkers" condition="int">1</parameter>
<parameter name="recordconfigs" condition="int">0</parameter>
<parameter name="recordwalkers" condition="int">1</parameter>
<parameter name="rewind" condition="int">0</parameter>
<parameter name="samples" condition="real">5.1200e+05</parameter>
<parameter name="samplesperthread" condition="real">5.0000e+02</parameter>
<parameter name="steps" condition="int">2</parameter>
<parameter name="stepsbetweensamples" condition="int">1</parameter>
<parameter name="store_configs" condition="int">0</parameter>
<parameter name="storeconfigs" condition="int">0</parameter>
<parameter name="sub_steps" condition="int">5</parameter>
<parameter name="substeps" condition="int">5</parameter>
<parameter name="tau" condition="au">1.5000e-01</parameter>
<parameter name="time_step" condition="au">1.5000e-01</parameter>
<parameter name="timestep" condition="au">1.5000e-01</parameter>
<parameter name="use_drift" condition="string">no</parameter>
<parameter name="usedrift" condition="string">no</parameter>
<parameter name="walkers" condition="int">1</parameter>
<parameter name="warmup_steps" condition="int">0</parameter>
<parameter name="warmupsteps" condition="int">0</parameter>
  DumpConfig==false Nothing (configurations, state) will be saved.
  Walker Samples are dumped every 1 steps.
</vmc>
  EstimatorManagerBase::add replace LocalEnergy estimator.
  EstimatorManagerBase::add replace LocalEnergy estimator.
<optimization-report>
<vmc stage="main" blocks="400">
  Cannot make clones again. Use existing 1 clones
  Initial partition of walkers 0 1 
  Using Particle by Particle moves
  Walker moves without drift
  Total Sample Size   =512000
  Walker distribution on root = 0 1 
  Using Locality Approximation
===== Memory Usage after the buffer registration =====
Available memory on node 0, free + buffers : 83813 MB
Memory footprint by rank 0 on node 0       : 124 MB
==================================================
====================================================
  SimpleFixedNodeBranch::finalize after a VMC block
    QMC counter        = 19
    time step          = 0.15
    reference energy   = -86.5886
    reference variance = 1.22132
====================================================
  Execution time = 5.7994e+00
</vmc>
<opt stage="setup">
  <log>
   Reading configurations from h5FileRoot Cr.log.s019
  QMCCostFunction is created with 1 threads.
  Using Nonlocal PP in Opt: NonLocalECP
   Number of samples loaded to each thread : 500 
  VMC Eavg = -8.6532e+01
  VMC Evar = 1.2702e+00
  Total weights = 5.1200e+05
  Execution time = 1.2733e+00
  </log>
</opt>
<opt stage="main" walkers="512000">
  <log>

*****************************************
Building overlap and Hamiltonian matrices
*****************************************

Among totally 30 optimized parameters, largest LM parameter change : 1.9563e-02 at parameter 27

******************************************************************************
Init Cost =  -8.2142e+01    New Cost =  -8.2143e+01  Delta Cost =  -2.9378e-04
******************************************************************************

The new set of parameters is valid. Updating the trial wave function!

*****************************************************************************
Applying the update for shift_i =   1.0000e-02     and shift_s =   3.9062e-03
*****************************************************************************
  Execution time = 8.2778e+00
  </log>
  <optVariables href="Cr.log.s019.opt.xml">
uu_0 2.6768e-01 1 1  ON 0
uu_1 8.2426e-02 1 1  ON 1
uu_2 1.6932e-03 1 1  ON 2
uu_3 -4.5635e-02 1 1  ON 3
uu_4 -6.4697e-02 1 1  ON 4
uu_5 -7.9948e-02 1 1  ON 5
uu_6 -7.8243e-02 1 1  ON 6
uu_7 -6.6567e-02 1 1  ON 7
uu_8 -3.4072e-02 1 1  ON 8
uu_9 -1.8891e-02 1 1  ON 9
ud_0 3.1384e-01 1 1  ON 10
ud_1 9.0667e-02 1 1  ON 11
ud_2 1.1390e-02 1 1  ON 12
ud_3 -4.1270e-02 1 1  ON 13
ud_4 -5.7285e-02 1 1  ON 14
ud_5 -7.9429e-02 1 1  ON 15
ud_6 -7.2992e-02 1 1  ON 16
ud_7 -6.4304e-02 1 1  ON 17
ud_8 -2.5906e-02 1 1  ON 18
ud_9 -1.0349e-02 1 1  ON 19
eCr_0 -1.9753e+00 1 1  ON 20
eCr_1 -1.0268e+00 1 1  ON 21
eCr_2 -1.6661e-01 1 1  ON 22
eCr_3 3.1277e-01 1 1  ON 23
eCr_4 6.2824e-01 1 1  ON 24
eCr_5 7.8532e-01 1 1  ON 25
eCr_6 7.7542e-01 1 1  ON 26
eCr_7 5.2341e-01 1 1  ON 27
eCr_8 1.6050e-01 1 1  ON 28
eCr_9 -1.1899e-02 1 1  ON 29
  </optVariables>
   Restore the number of walkers to 1, removing 0 walkers.
</opt>
</optimization-report>
  QMC Execution time = 8.2877e+00 secs 
  Reusing QMCFixedSampleLinearOptimize
 Using QMCCostFunction::QMCCostFunction

=========================================================
  Start QMCFixedSampleLinearOptimize
  File Root Cr.log.s020 append = no 
=========================================================
  Skip QMCDriver::putQMCInfo 
  Resetting Properties of the walkers 1 x 13

=========================================================
  Start VMC
  File Root Cr.log.s020 append = no 
=========================================================
Using existing walkers 
  Resetting Properties of the walkers 1 x 13

<vmc function="put">
  qmc_counter=9  my_counter=19
  time step      = 1.5000e-01
  blocks         = 400
  steps          = 2
  substeps       = 5
  current        = 0
  target samples = 5.1200e+05
  walkers/mpi    = 1

  stepsbetweensamples = 1
<parameter name="blocks" condition="int">400</parameter>
<parameter name="blocks_between_recompute" condition="int">0</parameter>
<parameter name="check_properties" condition="int">100</parameter>
<parameter name="checkproperties" condition="int">100</parameter>
<parameter name="current" condition="int">0</parameter>
<parameter name="dmcwalkersperthread" condition="real">5.0000e+02</parameter>
<parameter name="maxcpusecs" condition="real">3.6000e+05</parameter>
<parameter name="record_configs" condition="int">0</parameter>
<parameter name="record_walkers" condition="int">1</parameter>
<parameter name="recordconfigs" condition="int">0</parameter>
<parameter name="recordwalkers" condition="int">1</parameter>
<parameter name="rewind" condition="int">0</parameter>
<parameter name="samples" condition="real">5.1200e+05</parameter>
<parameter name="samplesperthread" condition="real">5.0000e+02</parameter>
<parameter name="steps" condition="int">2</parameter>
<parameter name="stepsbetweensamples" condition="int">1</parameter>
<parameter name="store_configs" condition="int">0</parameter>
<parameter name="storeconfigs" condition="int">0</parameter>
<parameter name="sub_steps" condition="int">5</parameter>
<parameter name="substeps" condition="int">5</parameter>
<parameter name="tau" condition="au">1.5000e-01</parameter>
<parameter name="time_step" condition="au">1.5000e-01</parameter>
<parameter name="timestep" condition="au">1.5000e-01</parameter>
<parameter name="use_drift" condition="string">no</parameter>
<parameter name="usedrift" condition="string">no</parameter>
<parameter name="walkers" condition="int">1</parameter>
<parameter name="warmup_steps" condition="int">0</parameter>
<parameter name="warmupsteps" condition="int">0</parameter>
  DumpConfig==false Nothing (configurations, state) will be saved.
  Walker Samples are dumped every 1 steps.
</vmc>
  EstimatorManagerBase::add replace LocalEnergy estimator.
  EstimatorManagerBase::add replace LocalEnergy estimator.
<optimization-report>
<vmc stage="main" blocks="400">
  Cannot make clones again. Use existing 1 clones
  Initial partition of walkers 0 1 
  Using Particle by Particle moves
  Walker moves without drift
  Total Sample Size   =512000
  Walker distribution on root = 0 1 
  Using Locality Approximation
===== Memory Usage after the buffer registration =====
Available memory on node 0, free + buffers : 83810 MB
Memory footprint by rank 0 on node 0       : 126 MB
==================================================
====================================================
  SimpleFixedNodeBranch::finalize after a VMC block
    QMC counter        = 20
    time step          = 0.15
    reference energy   = -86.5677
    reference variance = 1.1443
====================================================
  Execution time = 5.8357e+00
</vmc>
<opt stage="setup">
  <log>
   Reading configurations from h5FileRoot Cr.log.s020
  QMCCostFunction is created with 1 threads.
  Using Nonlocal PP in Opt: NonLocalECP
   Number of samples loaded to each thread : 500 
  VMC Eavg = -8.6533e+01
  VMC Evar = 1.2834e+00
  Total weights = 5.1200e+05
  Execution time = 1.2386e+00
  </log>
</opt>
<opt stage="main" walkers="512000">
  <log>

*****************************************
Building overlap and Hamiltonian matrices
*****************************************

Among totally 30 optimized parameters, largest LM parameter change : 2.4015e-02 at parameter 27

******************************************************************************
Init Cost =  -8.2142e+01    New Cost =  -8.2142e+01  Delta Cost =   5.0888e-05
******************************************************************************

The new set of parameters is valid. Updating the trial wave function!

*****************************************************************************
Applying the update for shift_i =   1.0000e-02     and shift_s =   3.9062e-03
*****************************************************************************
  Execution time = 8.2457e+00
  </log>
  <optVariables href="Cr.log.s020.opt.xml">
uu_0 2.6123e-01 1 1  ON 0
uu_1 7.5914e-02 1 1  ON 1
uu_2 -5.5250e-03 1 1  ON 2
uu_3 -5.3367e-02 1 1  ON 3
uu_4 -7.2921e-02 1 1  ON 4
uu_5 -8.7977e-02 1 1  ON 5
uu_6 -8.5679e-02 1 1  ON 6
uu_7 -6.8434e-02 1 1  ON 7
uu_8 -3.3057e-02 1 1  ON 8
uu_9 -1.2711e-02 1 1  ON 9
ud_0 3.1172e-01 1 1  ON 10
ud_1 8.8312e-02 1 1  ON 11
ud_2 9.0918e-03 1 1  ON 12
ud_3 -4.3881e-02 1 1  ON 13
ud_4 -6.1401e-02 1 1  ON 14
ud_5 -8.0878e-02 1 1  ON 15
ud_6 -8.0137e-02 1 1  ON 16
ud_7 -6.9956e-02 1 1  ON 17
ud_8 -2.4527e-02 1 1  ON 18
ud_9 -4.2534e-03 1 1  ON 19
eCr_0 -1.9918e+00 1 1  ON 20
eCr_1 -1.0401e+00 1 1  ON 21
eCr_2 -1.7732e-01 1 1  ON 22
eCr_3 3.1079e-01 1 1  ON 23
eCr_4 6.2658e-01 1 1  ON 24
eCr_5 7.8079e-01 1 1  ON 25
eCr_6 7.7651e-01 1 1  ON 26
eCr_7 5.4742e-01 1 1  ON 27
eCr_8 1.7534e-01 1 1  ON 28
eCr_9 -8.5835e-03 1 1  ON 29
  </optVariables>
   Restore the number of walkers to 1, removing 0 walkers.
</opt>
</optimization-report>
  QMC Execution time = 8.2538e+00 secs 
  Total Execution time = 1.5688e+02 secs

=========================================================
  A new xml input file : Cr.log.s020.cont.xml
TACC:  Shutdown complete. Exiting. 
