
 Primary working directories    : /global/cscratch1/sd/aannabe
 Secondary working directories  : /global/cscratch1/sd/aannabe
 Wavefunction directory         : /global/homes/a/aannabe/wfu/
 Main file repository           : /global/cscratch1/sd/aannabe/

 SHA1      : 2873118e99aab1bc19f5b6fc1784693c06d15c95
 NAME      : 2015.1.8
 ARCHNAME  : linux/x86_64
 FC        : /opt/cray/pe/craype/2.5.5/bin/ftn
 BLASLIB   : -Wl,-_start-group /opt/intel/compilers_and_libraries_2016.3.210/linux/mkl/lib/intel64/libmkl_intel_ilp64.a /opt/intel/compilers_and_libraries_2016.3.210/linux/mkl/lib/intel64/libmkl_intel_thread.a /opt/intel/compilers_and_libraries_2016.3.210/linux/mkl/lib/intel64/libmkl_core.a -Wl,-_end-group
 id        : lbl

 Nodes     nprocs
 nid00495     1

 Using customized tuning parameters: mindgm=8; mindgv=16; mindgc=4; mindgr=1; noblas=0; minvec=7
 default implementation of scratch files=df  

 ***,C
 memory,512,m
 gthresh,twoint=1.e-12
 
 gprint,basis,orbitals
 gexpec,ekin,pot
 
 angstrom
 geometry={
 1                                                                               ! Number of atoms
 C 0.0 0.0 0.0
 }
 
 basis={
 Including file /global/homes/a/aannabe/docs/totals_bfd/pps/C.pp
 Including file /global/homes/a/aannabe/docs/totals_bfd/basis/aug-cc-pVnZ/C_dz.basis
 }
 
 {hf
 wf,4,6,2
 occ,1,1,0,0,1,0,0,0
                                                                                 !open,1.2,1.5
 closed,1,0,0,0,0,0,0,0
                                                                                 !sym,
 }
 scf(i)=energy
 
 _CC_NORM_MAX=2.0
 {ci
 maxit,100
 core
 }
 posthf(i)=energy
 
 table,scf,posthf,ekin,pot
 save,2.csv,new
 
 

 Variables initialized (889), CPU time= 0.00 sec
 Commands  initialized (702), CPU time= 0.01 sec, 572 directives.
 Default parameters read. Elapsed time= 0.20 sec

 Checking input...
 Passed
1


                                         ***  PROGRAM SYSTEM MOLPRO  ***
                                       Copyright, TTI GmbH Stuttgart, 2015
                                    Version 2015.1 linked Sep  7 2016 23:09:38


 **********************************************************************************************************************************
 LABEL *   C                                                                             
  64 bit serial version                                                                  DATE: 20-Jun-18          TIME: 00:45:29  
 **********************************************************************************************************************************

 SHA1:             2873118e99aab1bc19f5b6fc1784693c06d15c95
 **********************************************************************************************************************************

 THRESHOLDS:

 ZERO    =  1.00D-12  ONEINT  =  1.00D-12  TWOINT  =  1.00D-12  PREFAC  =  1.00D-14  LOCALI  =  1.00D-09  EORDER  =  1.00D-04
 ENERGY  =  0.00D+00  ETEST   =  0.00D+00  EDENS   =  0.00D+00  THRDEDEF=  1.00D-06  GRADIENT=  1.00D-02  STEP    =  1.00D-03
 ORBITAL =  1.00D-05  CIVEC   =  1.00D-05  COEFF   =  1.00D-04  PRINTCI =  5.00D-02  PUNCHCI =  9.90D+01  OPTGRAD =  3.00D-04
 OPTENERG=  1.00D-06  OPTSTEP =  3.00D-04  THRGRAD =  1.00D-10  COMPRESS=  1.00D-11  VARMIN  =  1.00D-07  VARMAX  =  1.00D-03
 THRDOUB =  0.00D+00  THRDIV  =  1.00D-05  THRRED  =  1.00D-07  THRPSP  =  1.00D+00  THRDC   =  1.00D-10  THRCS   =  1.00D-10
 THRNRM  =  1.00D-08  THREQ   =  0.00D+00  THRDE   =  1.00D+00  THRREF  =  1.00D-05  SPARFAC =  1.00D+00  THRDLP  =  1.00D-07
 THRDIA  =  1.00D-10  THRDLS  =  1.00D-07  THRGPS  =  0.00D+00  THRKEX  =  0.00D+00  THRDIS  =  2.00D-01  THRVAR  =  1.00D-10
 THRLOC  =  1.00D-06  THRGAP  =  1.00D-06  THRLOCT = -1.00D+00  THRGAPT = -1.00D+00  THRORB  =  1.00D-06  THRMLTP =  0.00D+00
 THRCPQCI=  1.00D-10  KEXTA   =  0.00D+00  THRCOARS=  0.00D+00  SYMTOL  =  1.00D-06  GRADTOL =  1.00D-06  THROVL  =  1.00D-08
 THRORTH =  1.00D-08  GRID    =  1.00D-06  GRIDMAX =  1.00D-03  DTMAX   =  0.00D+00  THROCCDE=  1.00D-01  THROCCDE=  1.00D-01



 ZUNIT=ANG
 

Geometry recognized as XYZ


 Variable memory set to  512000000 words,  buffer space   230000 words

 SETTING BASIS          =    USERDEF


 Recomputing integrals since basis changed


 Using spherical harmonics



 PROGRAM * SEWARD (Integral evaluation for generally contracted gaussian basis sets)     Author: Roland Lindh, 1990

 Geometry written to block  1 of record 700

 Orientation using atomic masses  
 Molecule type: Atom
 Symmetry elements: X,Y,Z
 Rotational constants:       0.0000000      0.0000000      0.0000000 GHz  (calculated with average atomic masses)

 Point group  D2h 



 ATOMIC COORDINATES

 NR  ATOM    CHARGE       X              Y              Z

   1  C       4.00    0.000000000    0.000000000    0.000000000


          C   CORE POTENTIAL

          p POTENTIAL

 POWERS             1              3              2
 EXPONENTIALS   8.359738       4.483619       3.938313    
 COEFFICIENTS   4.000000       33.43895      -19.17537    

          s - p POTENTIAL

 POWERS             2
 EXPONENTIALS   5.029916    
 COEFFICIENTS   22.55164    


 BASIS DATA

   Nr Sym  Nuc  Type         Exponents   Contraction coefficients

    1.1 Ag    1  1s           0.051344     0.013991
                              0.102619     0.169852
                              0.205100     0.397529
                              0.409924     0.380369
                              0.819297     0.180113
                              1.637494    -0.033512
                              3.272791    -0.121499
                              6.541187     0.015176
                             13.073594    -0.000705
    2.1 Ag    1  1s           0.127852     1.000000
    3.1 Ag    1  1s           0.051141     1.000000
    4.1 Ag    1  3d0          0.561160     1.000000
    5.1 Ag    1  3d2+         0.561160     1.000000
    6.1 Ag    1  3d0          0.224464     1.000000
    7.1 Ag    1  3d2+         0.224464     1.000000
    1.2 B3u   1  2px          0.029281     0.001787
                              0.058547     0.050426
                              0.117063     0.191634
                              0.234064     0.302667
                              0.468003     0.289868
                              0.935757     0.210979
                              1.871016     0.112024
                              3.741035     0.054425
                              7.480076     0.021931
    2.2 B3u   1  2px          0.149161     1.000000
    3.2 B3u   1  2px          0.059664     1.000000
    1.3 B2u   1  2py          0.029281     0.001787
                              0.058547     0.050426
                              0.117063     0.191634
                              0.234064     0.302667
                              0.468003     0.289868
                              0.935757     0.210979
                              1.871016     0.112024
                              3.741035     0.054425
                              7.480076     0.021931
    2.3 B2u   1  2py          0.149161     1.000000
    3.3 B2u   1  2py          0.059664     1.000000
    1.4 B1g   1  3d2-         0.561160     1.000000
    2.4 B1g   1  3d2-         0.224464     1.000000
    1.5 B1u   1  2pz          0.029281     0.001787
                              0.058547     0.050426
                              0.117063     0.191634
                              0.234064     0.302667
                              0.468003     0.289868
                              0.935757     0.210979
                              1.871016     0.112024
                              3.741035     0.054425
                              7.480076     0.021931
    2.5 B1u   1  2pz          0.149161     1.000000
    3.5 B1u   1  2pz          0.059664     1.000000
    1.6 B2g   1  3d1+         0.561160     1.000000
    2.6 B2g   1  3d1+         0.224464     1.000000
    1.7 B3g   1  3d1-         0.561160     1.000000
    2.7 B3g   1  3d1-         0.224464     1.000000

 NUCLEAR CHARGE:                    4
 NUMBER OF PRIMITIVE AOS:          56
 NUMBER OF SYMMETRY AOS:           54
 NUMBER OF CONTRACTIONS:           22   (   7Ag  +   3B3u +   3B2u +   2B1g +   3B1u +   2B2g +   2B3g +   0Au  )
 NUMBER OF CORE ORBITALS:           0   (   0Ag  +   0B3u +   0B2u +   0B1g +   0B1u +   0B2g +   0B3g +   0Au  )
 NUMBER OF VALENCE ORBITALS:        4   (   1Ag  +   1B3u +   1B2u +   0B1g +   1B1u +   0B2g +   0B3g +   0Au  )


 NUCLEAR REPULSION ENERGY    0.00000000

 EXTRA SYMMETRY OF AOS IN SYMMETRY 1:   1 1 1 2 3 2 3

 Eigenvalues of metric

         1 0.303E-01 0.299E+00 0.299E+00 0.324E+00 0.170E+01 0.170E+01 0.265E+01
         2 0.104E+00 0.472E+00 0.242E+01
         3 0.104E+00 0.472E+00 0.242E+01
         4 0.299E+00 0.170E+01
         5 0.104E+00 0.472E+00 0.242E+01
         6 0.299E+00 0.170E+01
         7 0.299E+00 0.170E+01


 Contracted 2-electron integrals neglected if value below      1.0D-12
 AO integral compression algorithm  1   Integral accuracy      1.0D-12

     0.262 MB (compressed) written to integral file (100.0%)


 NUMBER OF SORTED TWO-ELECTRON INTEGRALS:       5272.     BUFFER LENGTH:  32768
 NUMBER OF SEGMENTS:   1  SEGMENT LENGTH:       5272      RECORD LENGTH: 524288

 Memory used in sort:       0.56 MW

 SORT1 READ       12220. AND WROTE        4734. INTEGRALS IN      1 RECORDS. CPU TIME:     0.00 SEC, REAL TIME:     0.01 SEC
 SORT2 READ        4734. AND WROTE        5272. INTEGRALS IN      1 RECORDS. CPU TIME:     0.01 SEC, REAL TIME:     0.01 SEC

 FILE SIZES:   FILE 1:    19.3 MBYTE,  FILE 4:     4.2 MBYTE,   TOTAL:     23.6 MBYTE

 OPERATOR DM      FOR CENTER  0  COORDINATES:    0.000000    0.000000    0.000000
 OPERATOR EKIN    FOR CENTER  0  COORDINATES:    0.000000    0.000000    0.000000
 OPERATOR POT     FOR CENTER  0  COORDINATES:    0.000000    0.000000    0.000000


 **********************************************************************************************************************************
 DATASETS  * FILE   NREC   LENGTH (MB)   RECORD NAMES
              1      20       19.12       500      610      700      900      950      970     1000      129      960     1100   
                                          VAR    BASINP    GEOM    SYMINP    ZMAT    AOBASIS   BASIS     P2S    ABASIS      S 
                                         1400     1410     1420     1200     1210     1080     1600     1650     1300     1700   
                                         EKIN       V       ECP      H0       H01     AOSYM     SMH    MOLCAS    ERIS     OPER   

 PROGRAMS   *        TOTAL       INT
 CPU TIMES  *         0.39      0.26
 REAL TIME  *         1.70 SEC
 DISK USED  *        23.83 MB      
 **********************************************************************************************************************************


 PROGRAM * RHF-SCF (OPEN SHELL)       Authors: W. Meyer, H.-J. Werner


 NUMBER OF ELECTRONS:       3+    1-    SPACE SYMMETRY=6    SPIN SYMMETRY: Triplet 
 CONVERGENCE THRESHOLDS:    1.00E-05 (Density)    1.00E-07 (Energy)
 MAX. NUMBER OF ITERATIONS:       60
 INTERPOLATION TYPE:            DIIS
 INTERPOLATION STEPS:              2 (START)      1 (STEP)
 LEVEL SHIFTS:                 -0.60 (CLOSED) -0.30 (OPEN) 

 Number of closed-shell orbitals:    1 (   1   0   0   0   0   0   0 )
 Number of open-shell orbitals:      2 (   0   1   0   0   1   0   0 )



   Atom=C  basis=ECP2MWB_GUESS     lmin=0  lmax=1

 Orbital guess generated from atomic densities. Full valence occupancy:    1   1   1   0   1   0   0   0


 Molecular orbital dump at record        2100.2

 ITERATION    DDIFF          GRAD             ENERGY        2-EL.EN.            DIPOLE MOMENTS         DIIS   ORB.
    1      0.000D+00      0.000D+00        -5.29655632      5.574532    0.00000    0.00000    0.00000    0    start
    2      0.000D+00      0.303D-01        -5.32424929      5.920104    0.00000    0.00000    0.00000    1    diag,B
    3      0.600D-01      0.897D-02        -5.32851839      6.067662    0.00000    0.00000    0.00000    2    diag,B
    4      0.194D-01      0.270D-02        -5.32901560      6.104853    0.00000    0.00000    0.00000    3    diag,B
    5      0.134D-01      0.310D-03        -5.32901763      6.101771    0.00000    0.00000    0.00000    4    diag,B
    6      0.591D-03      0.127D-03        -5.32901823      6.101695    0.00000    0.00000    0.00000    5    diag,B
    7      0.425D-03      0.155D-04        -5.32901824      6.101824    0.00000    0.00000    0.00000    6    fixocc
    8      0.526D-04      0.318D-05        -5.32901824      6.101754    0.00000    0.00000    0.00000    7    diag,B
    9      0.101D-04      0.126D-05        -5.32901824      6.101780    0.00000    0.00000    0.00000    8    diag,B
   10      0.367D-05      0.303D-06        -5.32901824      6.101777    0.00000    0.00000    0.00000    0    orth

 Final alpha occupancy:   1   1   0   0   1   0   0
 Final beta  occupancy:   1   0   0   0   0   0   0

 !RHF STATE 1.6 Energy                 -5.329018242588
 Nuclear energy                         0.00000000
 One-electron energy                   -8.37990649
 Two-electron energy                    3.05088825
 Virial quotient                       -1.60956667
 !RHF STATE 1.6 Dipole moment           0.00000000     0.00000000     0.00000000
 Dipole moment /Debye                   0.00000000     0.00000000     0.00000000
 

 !RHF expec          <1.6|EKIN|1.6>     3.310840331492
 
 !RHF expec           <1.6|POT|1.6>    -3.134066189811

 ELECTRON ORBITALS
 =================


   Orb  Occ    Energy  Couls-En    Coefficients

                                   1 1s      1 1s      1 1s      1 3d0     1 3d2+    1 3d0     1 3d2+ 

   1.1   2    -0.7057   -2.9801  1.000113 -0.000143  0.000008  0.000402  0.000695  0.002318  0.004014

                                   1 2px     1 2px     1 2px  

   1.2   +    -0.4333   -2.3489  0.999931  0.000088 -0.000006

                                   1 2pz     1 2pz     1 2pz  

   1.5   +    -0.4333   -2.3489  0.999931  0.000088 -0.000006

 HOMO      1.2    -0.433323 =     -11.7913eV
 LUMO      1.3     0.016095 =       0.4380eV
 LUMO-HOMO         0.449418 =      12.2293eV


 **********************************************************************************************************************************
 DATASETS  * FILE   NREC   LENGTH (MB)   RECORD NAMES
              1      20       19.12       500      610      700      900      950      970     1000      129      960     1100   
                                          VAR    BASINP    GEOM    SYMINP    ZMAT    AOBASIS   BASIS     P2S    ABASIS      S 
                                         1400     1410     1420     1200     1210     1080     1600     1650     1300     1700   
                                         EKIN       V       ECP      H0       H01     AOSYM     SMH    MOLCAS    ERIS     OPER   

              2       4        2.75       700     1000      520     2100   
                                         GEOM     BASIS   MCVARS     RHF  

 PROGRAMS   *        TOTAL        HF       INT
 CPU TIMES  *         0.45      0.06      0.26
 REAL TIME  *         1.89 SEC
 DISK USED  *        23.83 MB      
 **********************************************************************************************************************************
 SETTING SCF(I)         =        -5.32901824  AU                              
 SETTING _CC_NORM_MAX   =         2.00000000                                  


 PROGRAM * CI (Multireference internally contracted CI)     Authors: H.-J. Werner, P.J. Knowles, 1987


 Convergence thresholds:  THRVAR = 1.00D-08  THRDEN = 1.00D-06

 Number of optimized states:  1  Roots:   1
 Number of reference states:  1  Roots:   1

 Reference symmetry:                   6   Triplet 
 Number of electrons:                  4
 Maximum number of shells:             2
 Maximum number of spin couplings:     3

 Reference space:        1 conf        1 CSFs
 N elec internal:        3 conf        3 CSFs
 N-1 el internal:        7 conf        9 CSFs
 N-2 el internal:        4 conf       10 CSFs

 Number of electrons in valence space:                      4
 Maximum number of open shell orbitals in reference space:  2
 Maximum number of open shell orbitals in internal spaces:  4


 Number of closed-shell orbitals:   1 (   1   0   0   0   0   0   0 )
 Number of active  orbitals:        2 (   0   1   0   0   1   0   0 )
 Number of external orbitals:      19 (   6   2   3   2   2   2   2 )

 Molecular orbitals read from record     2100.2  Type=RHF/CANONICAL (state 1.6)

 Integral transformation finished. Total CPU:   0.00 sec, npass=  1  Memory used:   0.07 MW

 Number of p-space configurations:   1

 Reference wavefunction optimized for reference space (refopt=1)

 State     Reference Energy 
   1          -5.32901824

 Number of blocks in overlap matrix:     6   Smallest eigenvalue:  0.10D+01
 Number of N-2 electron functions:       6
 Number of N-1 electron functions:       9

 Number of internal configurations:                    1
 Number of singly external configurations:            30
 Number of doubly external configurations:           150
 Total number of contracted configurations:          181
 Total number of uncontracted configurations:        271

 Diagonal Coupling coefficients finished.               Storage:     446 words, CPU-Time:      0.00 seconds.
 Energy denominators for pairs finished in 1 passes.    Storage:     663 words, CPU-time:      0.00 seconds.

  ITER. STATE  ROOT     SQ.NORM     CORR.ENERGY   TOTAL ENERGY   ENERGY CHANGE       DEN1      VAR(S)    VAR(P)      TIME
    1     1     1     1.00000000     0.00000000    -5.32901824     0.00000000    -0.07363699  0.17D-01  0.25D-01     0.01
    2     1     1     1.04872945    -0.07959587    -5.40861411    -0.07959587    -0.00165296  0.20D-03  0.71D-03     0.01
    3     1     1     1.05679460    -0.08204859    -5.41106683    -0.00245272    -0.00010446  0.16D-04  0.42D-04     0.02
    4     1     1     1.05801239    -0.08218332    -5.41120156    -0.00013474    -0.00000281  0.11D-05  0.78D-06     0.02
    5     1     1     1.05797979    -0.08218667    -5.41120492    -0.00000335    -0.00000012  0.52D-07  0.28D-07     0.02
    6     1     1     1.05796590    -0.08218682    -5.41120506    -0.00000014    -0.00000000  0.13D-08  0.15D-08     0.02


 =====================================
 Analysis of CPU times by interactions
 =====================================

       I      S      P

 I   0.0%
 S   0.0%  50.0%
 P   0.0%   0.0%   0.0%

 Initialization:  50.0%
 Other:            0.0%

 Total CPU:        0.0 seconds
 =====================================



 Reference coefficients greater than 0.0500000
 =============================================
 2//           0.9722191

 Coefficients of doubly external configurations greater than 0.0500000
 =====================================================================

 PAIR    I     J   ->   K     L     NP  SYM  REF     COEFFICIENTS

   1    1.1   1.1      1.3   1.3     1   1    1   -0.09830198
   1    1.1   1.1      1.3   2.3     1   1    1    0.05694764



 RESULTS FOR STATE 1.6
 =====================

 Coefficient of reference function:   C(0) = 0.97221914 (fixed)   0.97221914 (relaxed)

 Energy contributions of configuration classes

 CLASS          SQ.NORM        ECORR1        ECORR2
 +++++++++++++++++++++++++++++++++++++++++++++++++++
 Internals    0.00000000    0.00000000    0.00000000
 Singles      0.01784781   -0.02607275   -0.02603219
 Pairs        0.04011809   -0.05611407   -0.05615463
 Total        1.05796590   -0.08218682   -0.08218682
 +++++++++++++++++++++++++++++++++++++++++++++++++++


 Reference energy                      -5.32901824
 Nuclear energy                         0.00000000
 Kinetic energy                         3.39905497
 One electron energy                   -8.30984445
 Two electron energy                    2.89863939
 Virial quotient                       -1.59197339
 Correlation energy                    -0.08218682
 !CI(SD) STATE 1.6 Energy              -5.411205061074

 Properties without orbital relaxation:

 !CI(SD) STATE 1.6 Dipole moment        0.00000000     0.00000000     0.00000000
 Dipole moment /Debye                   0.00000000     0.00000000     0.00000000

 Cluster corrected energies            -5.41596909 (Davidson, fixed reference)
 Cluster corrected energies            -5.41596909 (Davidson, relaxed reference)

 Cluster corrected energies            -5.41120506 (Pople, fixed reference)
 Cluster corrected energies            -5.41120506 (Pople, relaxed reference)

 

 !CI(SD) expec       <1.6|EKIN|1.6>     3.399054970410
 
 !CI(SD) expec        <1.6|POT|1.6>    -3.130196089014


 **********************************************************************************************************************************
 DATASETS  * FILE   NREC   LENGTH (MB)   RECORD NAMES
              1      21       19.13       500      610      700      900      950      970     1000      129      960     1100   
                                          VAR    BASINP    GEOM    SYMINP    ZMAT    AOBASIS   BASIS     P2S    ABASIS      S 
                                         1400     1410     1420     1200     1210     1080     1600     1650     1300     1700   
                                         EKIN       V       ECP      H0       H01     AOSYM     SMH    MOLCAS    ERIS     OPER   
                                         1380   
                                         JKOP   

              2       4        2.75       700     1000      520     2100   
                                         GEOM     BASIS   MCVARS     RHF  

 PROGRAMS   *        TOTAL        CI        HF       INT
 CPU TIMES  *         0.51      0.05      0.06      0.26
 REAL TIME  *         2.41 SEC
 DISK USED  *        23.83 MB      
 **********************************************************************************************************************************
 SETTING POSTHF(I)      =        -5.41120506  AU                              
                                                                                                                                                                                                                                                                

       SCF           POSTHF       EKIN          POT
    -5.32901824   -5.41120506   3.39905497   -3.13019609
                                                  

 CI/USERDEF energy=     -5.411205061074

        CI              HF-SCF  
     -5.41120506     -5.32901824
 **********************************************************************************************************************************
 Variable memory released
