
 Primary working directories    : /global/cscratch1/sd/aannabe
 Secondary working directories  : /global/cscratch1/sd/aannabe
 Wavefunction directory         : /global/homes/a/aannabe/wfu/
 Main file repository           : /global/cscratch1/sd/aannabe/

 SHA1      : 2873118e99aab1bc19f5b6fc1784693c06d15c95
 NAME      : 2015.1.8
 ARCHNAME  : linux/x86_64
 FC        : /opt/cray/pe/craype/2.5.5/bin/ftn
 BLASLIB   : -Wl,-_start-group /opt/intel/compilers_and_libraries_2016.3.210/linux/mkl/lib/intel64/libmkl_intel_ilp64.a /opt/intel/compilers_and_libraries_2016.3.210/linux/mkl/lib/intel64/libmkl_intel_thread.a /opt/intel/compilers_and_libraries_2016.3.210/linux/mkl/lib/intel64/libmkl_core.a -Wl,-_end-group
 id        : lbl

 Nodes     nprocs
 nid00495     1

 Using customized tuning parameters: mindgm=8; mindgv=16; mindgc=4; mindgr=1; noblas=0; minvec=7
 default implementation of scratch files=df  

 ***,C
 memory,512,m
 gthresh,twoint=1.e-12
 
 gprint,basis,orbitals
 gexpec,ekin,pot
 
 angstrom
 geometry={
 1                                                                               ! Number of atoms
 C 0.0 0.0 0.0
 }
 
 basis={
 Including file /global/homes/a/aannabe/docs/totals_bfd/pps/C.pp
 Including file /global/homes/a/aannabe/docs/totals_bfd/basis/aug-cc-pVnZ/C_qz.basis
 }
 
 {hf
 wf,4,6,2
 occ,1,1,0,0,1,0,0,0
                                                                                 !open,1.2,1.5
 closed,1,0,0,0,0,0,0,0
                                                                                 !sym,
 }
 scf(i)=energy
 
 _CC_NORM_MAX=2.0
 {ci
 maxit,100
 core
 }
 posthf(i)=energy
 
 table,scf,posthf,ekin,pot
 save,4.csv,new
 
 

 Variables initialized (889), CPU time= 0.00 sec
 Commands  initialized (702), CPU time= 0.02 sec, 572 directives.
 Default parameters read. Elapsed time= 0.13 sec

 Checking input...
 Passed
1


                                         ***  PROGRAM SYSTEM MOLPRO  ***
                                       Copyright, TTI GmbH Stuttgart, 2015
                                    Version 2015.1 linked Sep  7 2016 23:09:38


 **********************************************************************************************************************************
 LABEL *   C                                                                             
  64 bit serial version                                                                  DATE: 20-Jun-18          TIME: 00:45:47  
 **********************************************************************************************************************************

 SHA1:             2873118e99aab1bc19f5b6fc1784693c06d15c95
 **********************************************************************************************************************************

 THRESHOLDS:

 ZERO    =  1.00D-12  ONEINT  =  1.00D-12  TWOINT  =  1.00D-12  PREFAC  =  1.00D-14  LOCALI  =  1.00D-09  EORDER  =  1.00D-04
 ENERGY  =  0.00D+00  ETEST   =  0.00D+00  EDENS   =  0.00D+00  THRDEDEF=  1.00D-06  GRADIENT=  1.00D-02  STEP    =  1.00D-03
 ORBITAL =  1.00D-05  CIVEC   =  1.00D-05  COEFF   =  1.00D-04  PRINTCI =  5.00D-02  PUNCHCI =  9.90D+01  OPTGRAD =  3.00D-04
 OPTENERG=  1.00D-06  OPTSTEP =  3.00D-04  THRGRAD =  1.00D-10  COMPRESS=  1.00D-11  VARMIN  =  1.00D-07  VARMAX  =  1.00D-03
 THRDOUB =  0.00D+00  THRDIV  =  1.00D-05  THRRED  =  1.00D-07  THRPSP  =  1.00D+00  THRDC   =  1.00D-10  THRCS   =  1.00D-10
 THRNRM  =  1.00D-08  THREQ   =  0.00D+00  THRDE   =  1.00D+00  THRREF  =  1.00D-05  SPARFAC =  1.00D+00  THRDLP  =  1.00D-07
 THRDIA  =  1.00D-10  THRDLS  =  1.00D-07  THRGPS  =  0.00D+00  THRKEX  =  0.00D+00  THRDIS  =  2.00D-01  THRVAR  =  1.00D-10
 THRLOC  =  1.00D-06  THRGAP  =  1.00D-06  THRLOCT = -1.00D+00  THRGAPT = -1.00D+00  THRORB  =  1.00D-06  THRMLTP =  0.00D+00
 THRCPQCI=  1.00D-10  KEXTA   =  0.00D+00  THRCOARS=  0.00D+00  SYMTOL  =  1.00D-06  GRADTOL =  1.00D-06  THROVL  =  1.00D-08
 THRORTH =  1.00D-08  GRID    =  1.00D-06  GRIDMAX =  1.00D-03  DTMAX   =  0.00D+00  THROCCDE=  1.00D-01  THROCCDE=  1.00D-01



 ZUNIT=ANG
 

Geometry recognized as XYZ


 Variable memory set to  512000000 words,  buffer space   230000 words

 SETTING BASIS          =    USERDEF


 Recomputing integrals since basis changed


 Using spherical harmonics



 PROGRAM * SEWARD (Integral evaluation for generally contracted gaussian basis sets)     Author: Roland Lindh, 1990

 Geometry written to block  1 of record 700

 Orientation using atomic masses  
 Molecule type: Atom
 Symmetry elements: X,Y,Z
 Rotational constants:       0.0000000      0.0000000      0.0000000 GHz  (calculated with average atomic masses)

 Point group  D2h 



 ATOMIC COORDINATES

 NR  ATOM    CHARGE       X              Y              Z

   1  C       4.00    0.000000000    0.000000000    0.000000000


          C   CORE POTENTIAL

          p POTENTIAL

 POWERS             1              3              2
 EXPONENTIALS   8.359738       4.483619       3.938313    
 COEFFICIENTS   4.000000       33.43895      -19.17537    

          s - p POTENTIAL

 POWERS             2
 EXPONENTIALS   5.029916    
 COEFFICIENTS   22.55164    


 BASIS DATA

   Nr Sym  Nuc  Type         Exponents   Contraction coefficients

    1.1 Ag    1  1s           0.051344     0.013991
                              0.102619     0.169852
                              0.205100     0.397529
                              0.409924     0.380369
                              0.819297     0.180113
                              1.637494    -0.033512
                              3.272791    -0.121499
                              6.541187     0.015176
                             13.073594    -0.000705
    2.1 Ag    1  1s           0.043830     1.000000
    3.1 Ag    1  1s           0.109576     1.000000
    4.1 Ag    1  1s           0.846879     1.000000
    5.1 Ag    1  1s           0.269659     1.000000
    6.1 Ag    1  3d0          0.096068     1.000000
    7.1 Ag    1  3d2+         0.096068     1.000000
    8.1 Ag    1  3d0          0.240171     1.000000
    9.1 Ag    1  3d2+         0.240171     1.000000
   10.1 Ag    1  3d0          0.684884     1.000000
   11.1 Ag    1  3d2+         0.684884     1.000000
   12.1 Ag    1  3d0          2.013760     1.000000
   13.1 Ag    1  3d2+         2.013760     1.000000
   14.1 Ag    1  5g0          0.413672     1.000000
   15.1 Ag    1  5g4+         0.413672     1.000000
   16.1 Ag    1  5g2+         0.413672     1.000000
   17.1 Ag    1  5g0          1.034180     1.000000
   18.1 Ag    1  5g4+         1.034180     1.000000
   19.1 Ag    1  5g2+         1.034180     1.000000
    1.2 B3u   1  2px          0.029281     0.001787
                              0.058547     0.050426
                              0.117063     0.191634
                              0.234064     0.302667
                              0.468003     0.289868
                              0.935757     0.210979
                              1.871016     0.112024
                              3.741035     0.054425
                              7.480076     0.021931
    2.2 B3u   1  2px          0.042156     1.000000
    3.2 B3u   1  2px          0.105389     1.000000
    4.2 B3u   1  2px          0.313254     1.000000
    5.2 B3u   1  2px          0.804681     1.000000
    6.2 B3u   1  4f1+         0.182921     1.000000
    7.2 B3u   1  4f3+         0.182921     1.000000
    8.2 B3u   1  4f1+         0.457302     1.000000
    9.2 B3u   1  4f3+         0.457302     1.000000
   10.2 B3u   1  4f1+         1.324930     1.000000
   11.2 B3u   1  4f3+         1.324930     1.000000
    1.3 B2u   1  2py          0.029281     0.001787
                              0.058547     0.050426
                              0.117063     0.191634
                              0.234064     0.302667
                              0.468003     0.289868
                              0.935757     0.210979
                              1.871016     0.112024
                              3.741035     0.054425
                              7.480076     0.021931
    2.3 B2u   1  2py          0.042156     1.000000
    3.3 B2u   1  2py          0.105389     1.000000
    4.3 B2u   1  2py          0.313254     1.000000
    5.3 B2u   1  2py          0.804681     1.000000
    6.3 B2u   1  4f1-         0.182921     1.000000
    7.3 B2u   1  4f3-         0.182921     1.000000
    8.3 B2u   1  4f1-         0.457302     1.000000
    9.3 B2u   1  4f3-         0.457302     1.000000
   10.3 B2u   1  4f1-         1.324930     1.000000
   11.3 B2u   1  4f3-         1.324930     1.000000
    1.4 B1g   1  3d2-         0.096068     1.000000
    2.4 B1g   1  3d2-         0.240171     1.000000
    3.4 B1g   1  3d2-         0.684884     1.000000
    4.4 B1g   1  3d2-         2.013760     1.000000
    5.4 B1g   1  5g2-         0.413672     1.000000
    6.4 B1g   1  5g4-         0.413672     1.000000
    7.4 B1g   1  5g2-         1.034180     1.000000
    8.4 B1g   1  5g4-         1.034180     1.000000
    1.5 B1u   1  2pz          0.029281     0.001787
                              0.058547     0.050426
                              0.117063     0.191634
                              0.234064     0.302667
                              0.468003     0.289868
                              0.935757     0.210979
                              1.871016     0.112024
                              3.741035     0.054425
                              7.480076     0.021931
    2.5 B1u   1  2pz          0.042156     1.000000
    3.5 B1u   1  2pz          0.105389     1.000000
    4.5 B1u   1  2pz          0.313254     1.000000
    5.5 B1u   1  2pz          0.804681     1.000000
    6.5 B1u   1  4f0          0.182921     1.000000
    7.5 B1u   1  4f2+         0.182921     1.000000
    8.5 B1u   1  4f0          0.457302     1.000000
    9.5 B1u   1  4f2+         0.457302     1.000000
   10.5 B1u   1  4f0          1.324930     1.000000
   11.5 B1u   1  4f2+         1.324930     1.000000
    1.6 B2g   1  3d1+         0.096068     1.000000
    2.6 B2g   1  3d1+         0.240171     1.000000
    3.6 B2g   1  3d1+         0.684884     1.000000
    4.6 B2g   1  3d1+         2.013760     1.000000
    5.6 B2g   1  5g1+         0.413672     1.000000
    6.6 B2g   1  5g3+         0.413672     1.000000
    7.6 B2g   1  5g1+         1.034180     1.000000
    8.6 B2g   1  5g3+         1.034180     1.000000
    1.7 B3g   1  3d1-         0.096068     1.000000
    2.7 B3g   1  3d1-         0.240171     1.000000
    3.7 B3g   1  3d1-         0.684884     1.000000
    4.7 B3g   1  3d1-         2.013760     1.000000
    5.7 B3g   1  5g1-         0.413672     1.000000
    6.7 B3g   1  5g3-         0.413672     1.000000
    7.7 B3g   1  5g1-         1.034180     1.000000
    8.7 B3g   1  5g3-         1.034180     1.000000
    1.8 Au    1  4f2-         0.182921     1.000000
    2.8 Au    1  4f2-         0.457302     1.000000
    3.8 Au    1  4f2-         1.324930     1.000000

 NUCLEAR CHARGE:                    4
 NUMBER OF PRIMITIVE AOS:         136
 NUMBER OF SYMMETRY AOS:          111
 NUMBER OF CONTRACTIONS:           79   (  19Ag  +  11B3u +  11B2u +   8B1g +  11B1u +   8B2g +   8B3g +   3Au  )
 NUMBER OF CORE ORBITALS:           0   (   0Ag  +   0B3u +   0B2u +   0B1g +   0B1u +   0B2g +   0B3g +   0Au  )
 NUMBER OF VALENCE ORBITALS:        4   (   1Ag  +   1B3u +   1B2u +   0B1g +   1B1u +   0B2g +   0B3g +   0Au  )


 NUCLEAR REPULSION ENERGY    0.00000000

 EXTRA SYMMETRY OF AOS IN SYMMETRY 1:   1 1 1 1 1 2 3 2 3 2   3 2 3 4 5 6 4 5 6
 EXTRA SYMMETRY OF AOS IN SYMMETRY 2:   1 1 1 1 1 2 3 2 3 2   3
 EXTRA SYMMETRY OF AOS IN SYMMETRY 3:   1 1 1 1 1 2 3 2 3 2   3
 EXTRA SYMMETRY OF AOS IN SYMMETRY 4:   1 1 1 1 2 3 2 3
 EXTRA SYMMETRY OF AOS IN SYMMETRY 5:   1 1 1 1 1 2 3 2 3 2   3
 EXTRA SYMMETRY OF AOS IN SYMMETRY 6:   1 1 1 1 2 3 2 3
 EXTRA SYMMETRY OF AOS IN SYMMETRY 7:   1 1 1 1 2 3 2 3

 Eigenvalues of metric

         1 0.333E-02 0.238E-01 0.120E+00 0.120E+00 0.197E+00 0.428E+00 0.428E+00 0.428E+00
         2 0.906E-02 0.640E-01 0.234E+00 0.234E+00 0.274E+00 0.855E+00 0.855E+00 0.119E+01
         3 0.906E-02 0.640E-01 0.234E+00 0.234E+00 0.274E+00 0.855E+00 0.855E+00 0.119E+01
         4 0.120E+00 0.428E+00 0.428E+00 0.428E+00 0.120E+01 0.157E+01 0.157E+01 0.226E+01
         5 0.906E-02 0.640E-01 0.234E+00 0.234E+00 0.274E+00 0.855E+00 0.855E+00 0.119E+01
         6 0.120E+00 0.428E+00 0.428E+00 0.428E+00 0.120E+01 0.157E+01 0.157E+01 0.226E+01
         7 0.120E+00 0.428E+00 0.428E+00 0.428E+00 0.120E+01 0.157E+01 0.157E+01 0.226E+01
         8 0.234E+00 0.855E+00 0.191E+01


 Contracted 2-electron integrals neglected if value below      1.0D-12
 AO integral compression algorithm  1   Integral accuracy      1.0D-12

     6.554 MB (compressed) written to integral file ( 65.7%)


 NUMBER OF SORTED TWO-ELECTRON INTEGRALS:     665704.     BUFFER LENGTH:  32768
 NUMBER OF SEGMENTS:   1  SEGMENT LENGTH:     665704      RECORD LENGTH: 524288

 Memory used in sort:       1.22 MW

 SORT1 READ     1222209. AND WROTE      500866. INTEGRALS IN      2 RECORDS. CPU TIME:     0.04 SEC, REAL TIME:     0.06 SEC
 SORT2 READ      500866. AND WROTE      665704. INTEGRALS IN     25 RECORDS. CPU TIME:     0.04 SEC, REAL TIME:     0.13 SEC

 FILE SIZES:   FILE 1:    25.8 MBYTE,  FILE 4:     8.4 MBYTE,   TOTAL:     34.2 MBYTE

 OPERATOR DM      FOR CENTER  0  COORDINATES:    0.000000    0.000000    0.000000
 OPERATOR EKIN    FOR CENTER  0  COORDINATES:    0.000000    0.000000    0.000000
 OPERATOR POT     FOR CENTER  0  COORDINATES:    0.000000    0.000000    0.000000


 **********************************************************************************************************************************
 DATASETS  * FILE   NREC   LENGTH (MB)   RECORD NAMES
              1      20       22.73       500      610      700      900      950      970     1000      129      960     1100   
                                          VAR    BASINP    GEOM    SYMINP    ZMAT    AOBASIS   BASIS     P2S    ABASIS      S 
                                         1400     1410     1420     1200     1210     1080     1600     1650     1300     1700   
                                         EKIN       V       ECP      H0       H01     AOSYM     SMH    MOLCAS    ERIS     OPER   

 PROGRAMS   *        TOTAL       INT
 CPU TIMES  *         0.77      0.67
 REAL TIME  *         2.05 SEC
 DISK USED  *        34.49 MB      
 **********************************************************************************************************************************


 PROGRAM * RHF-SCF (OPEN SHELL)       Authors: W. Meyer, H.-J. Werner


 NUMBER OF ELECTRONS:       3+    1-    SPACE SYMMETRY=6    SPIN SYMMETRY: Triplet 
 CONVERGENCE THRESHOLDS:    1.00E-05 (Density)    1.00E-07 (Energy)
 MAX. NUMBER OF ITERATIONS:       60
 INTERPOLATION TYPE:            DIIS
 INTERPOLATION STEPS:              2 (START)      1 (STEP)
 LEVEL SHIFTS:                 -0.60 (CLOSED) -0.30 (OPEN) 

 Number of closed-shell orbitals:    1 (   1   0   0   0   0   0   0   0 )
 Number of open-shell orbitals:      2 (   0   1   0   0   1   0   0   0 )



   Atom=C  basis=ECP2MWB_GUESS     lmin=0  lmax=1

 Orbital guess generated from atomic densities. Full valence occupancy:    1   1   1   0   1   0   0   0


 Molecular orbital dump at record        2100.2

 ITERATION    DDIFF          GRAD             ENERGY        2-EL.EN.            DIPOLE MOMENTS         DIIS   ORB.
    1      0.000D+00      0.000D+00        -5.29358307      5.548394    0.00000    0.00000    0.00000    0    start
    2      0.000D+00      0.178D-01        -5.32414628      5.922210    0.00000    0.00000    0.00000    1    diag,B
    3      0.165D-01      0.468D-02        -5.32828365      6.053097    0.00000    0.00000    0.00000    2    diag,B
    4      0.446D-02      0.178D-02        -5.32898963      6.095710    0.00000    0.00000    0.00000    3    diag,B
    5      0.271D-02      0.442D-03        -5.32903002      6.100429    0.00000    0.00000    0.00000    4    diag,B
    6      0.948D-03      0.125D-03        -5.32903299      6.101783    0.00000    0.00000    0.00000    5    diag,B
    7      0.342D-03      0.188D-04        -5.32903303      6.101651    0.00000    0.00000    0.00000    6    fixocc
    8      0.189D-04      0.753D-05        -5.32903304      6.101691    0.00000    0.00000    0.00000    7    diag,B
    9      0.182D-04      0.103D-05        -5.32903304      6.101692    0.00000    0.00000    0.00000    8    diag,B
   10      0.245D-05      0.189D-06        -5.32903304      6.101691    0.00000    0.00000    0.00000    0    orth

 Final alpha occupancy:   1   1   0   0   1   0   0   0
 Final beta  occupancy:   1   0   0   0   0   0   0   0

 !RHF STATE 1.6 Energy                 -5.329033037949
 Nuclear energy                         0.00000000
 One-electron energy                   -8.37987847
 Two-electron energy                    3.05084544
 Virial quotient                       -1.60956581
 !RHF STATE 1.6 Dipole moment           0.00000000     0.00000000     0.00000000
 Dipole moment /Debye                   0.00000000     0.00000000     0.00000000
 

 !RHF expec          <1.6|EKIN|1.6>     3.310851289408
 
 !RHF expec           <1.6|POT|1.6>    -3.134071802370

 ELECTRON ORBITALS
 =================


   Orb  Occ    Energy  Couls-En    Coefficients

                                   1 1s      1 1s      1 1s      1 1s      1 1s      1 3d0     1 3d2+    1 3d0     1 3d2+    1 3d0  
                                   1 3d2+    1 3d0     1 3d2+    1 5g0     1 5g4+    1 5g2+    1 5g0     1 5g4+    1 5g2+ 

   1.1   2    -0.7058   -2.9801  1.000042  0.000009 -0.000123  0.000012  0.000035  0.001115  0.001931  0.001872  0.003242  0.000075
                                 0.000130  0.000561  0.000971 -0.000013 -0.000026 -0.000020 -0.000002 -0.000005 -0.000004

                                   1 2px     1 2px     1 2px     1 2px     1 2px     1 4f1+    1 4f3+    1 4f1+    1 4f3+    1 4f1+ 
                                   1 4f3+ 

   1.2   +    -0.4333   -2.3490  0.999981 -0.000003  0.000068 -0.000001 -0.000031  0.000014  0.000053 -0.000015 -0.000058 -0.000006
                                -0.000024

                                   1 2pz     1 2pz     1 2pz     1 2pz     1 2pz     1 4f0     1 4f2+    1 4f0     1 4f2+    1 4f0  
                                   1 4f2+ 

   1.5   +    -0.4333   -2.3490  0.999981 -0.000003  0.000068 -0.000001 -0.000031  0.000034  0.000043 -0.000037 -0.000047 -0.000015
                                -0.000019

 HOMO      1.2    -0.433340 =     -11.7918eV
 LUMO      1.3     0.013233 =       0.3601eV
 LUMO-HOMO         0.446573 =      12.1519eV


 **********************************************************************************************************************************
 DATASETS  * FILE   NREC   LENGTH (MB)   RECORD NAMES
              1      20       22.73       500      610      700      900      950      970     1000      129      960     1100   
                                          VAR    BASINP    GEOM    SYMINP    ZMAT    AOBASIS   BASIS     P2S    ABASIS      S 
                                         1400     1410     1420     1200     1210     1080     1600     1650     1300     1700   
                                         EKIN       V       ECP      H0       H01     AOSYM     SMH    MOLCAS    ERIS     OPER   

              2       4        2.78       700     1000      520     2100   
                                         GEOM     BASIS   MCVARS     RHF  

 PROGRAMS   *        TOTAL        HF       INT
 CPU TIMES  *         0.88      0.10      0.67
 REAL TIME  *         2.28 SEC
 DISK USED  *        34.49 MB      
 **********************************************************************************************************************************
 SETTING SCF(I)         =        -5.32903304  AU                              
 SETTING _CC_NORM_MAX   =         2.00000000                                  


 PROGRAM * CI (Multireference internally contracted CI)     Authors: H.-J. Werner, P.J. Knowles, 1987


 Convergence thresholds:  THRVAR = 1.00D-08  THRDEN = 1.00D-06

 Number of optimized states:  1  Roots:   1
 Number of reference states:  1  Roots:   1

 Reference symmetry:                   6   Triplet 
 Number of electrons:                  4
 Maximum number of shells:             2
 Maximum number of spin couplings:     3

 Reference space:        1 conf        1 CSFs
 N elec internal:        3 conf        3 CSFs
 N-1 el internal:        7 conf        9 CSFs
 N-2 el internal:        4 conf       10 CSFs

 Number of electrons in valence space:                      4
 Maximum number of open shell orbitals in reference space:  2
 Maximum number of open shell orbitals in internal spaces:  4


 Number of closed-shell orbitals:   1 (   1   0   0   0   0   0   0   0 )
 Number of active  orbitals:        2 (   0   1   0   0   1   0   0   0 )
 Number of external orbitals:      76 (  18  10  11   8  10   8   8   3 )

 Molecular orbitals read from record     2100.2  Type=RHF/CANONICAL (state 1.6)

 Integral transformation finished. Total CPU:   0.00 sec, npass=  1  Memory used:   0.08 MW

 Number of p-space configurations:   1

 Reference wavefunction optimized for reference space (refopt=1)

 State     Reference Energy 
   1          -5.32903304

 Number of blocks in overlap matrix:     6   Smallest eigenvalue:  0.10D+01
 Number of N-2 electron functions:       6
 Number of N-1 electron functions:       9

 Number of internal configurations:                    1
 Number of singly external configurations:           110
 Number of doubly external configurations:          2290
 Total number of contracted configurations:         2401
 Total number of uncontracted configurations:       3915

 Diagonal Coupling coefficients finished.               Storage:     446 words, CPU-Time:      0.00 seconds.
 Energy denominators for pairs finished in 1 passes.    Storage:    5195 words, CPU-time:      0.00 seconds.

  ITER. STATE  ROOT     SQ.NORM     CORR.ENERGY   TOTAL ENERGY   ENERGY CHANGE       DEN1      VAR(S)    VAR(P)      TIME
    1     1     1     1.00000000     0.00000000    -5.32903304     0.00000000    -0.09604959  0.17D-01  0.27D-01     0.01
    2     1     1     1.04385815    -0.09544525    -5.42447829    -0.09544525    -0.00266683  0.28D-03  0.91D-03     0.03
    3     1     1     1.05498023    -0.09900811    -5.42804115    -0.00356286    -0.00025975  0.55D-04  0.84D-04     0.04
    4     1     1     1.05700236    -0.09935216    -5.42838520    -0.00034404    -0.00001622  0.36D-05  0.44D-05     0.05
    5     1     1     1.05718037    -0.09937112    -5.42840416    -0.00001896    -0.00000070  0.13D-06  0.21D-06     0.06
    6     1     1     1.05715534    -0.09937201    -5.42840505    -0.00000089    -0.00000004  0.59D-08  0.13D-07     0.07
    7     1     1     1.05715645    -0.09937206    -5.42840510    -0.00000005    -0.00000000  0.51D-09  0.87D-09     0.08


 =====================================
 Analysis of CPU times by interactions
 =====================================

       I      S      P

 I   0.0%
 S   0.0%   0.0%
 P   0.0%   0.0%   0.0%

 Initialization:  12.5%
 Other:           87.5%

 Total CPU:        0.1 seconds
 =====================================



 Reference coefficients greater than 0.0500000
 =============================================
 2//           0.9725913

 Coefficients of doubly external configurations greater than 0.0500000
 =====================================================================

 PAIR    I     J   ->   K     L     NP  SYM  REF     COEFFICIENTS

   1    1.1   1.1      1.3   1.3     1   1    1   -0.08682876
   1    1.1   1.1      1.3   2.3     1   1    1    0.05194552



 RESULTS FOR STATE 1.6
 =====================

 Coefficient of reference function:   C(0) = 0.97259127 (fixed)   0.97259127 (relaxed)

 Energy contributions of configuration classes

 CLASS          SQ.NORM        ECORR1        ECORR2
 +++++++++++++++++++++++++++++++++++++++++++++++++++
 Internals    0.00000000    0.00000000    0.00000000
 Singles      0.01689759   -0.02664191   -0.02678986
 Pairs        0.04025886   -0.07273015   -0.07258220
 Total        1.05715645   -0.09937206   -0.09937206
 +++++++++++++++++++++++++++++++++++++++++++++++++++


 Reference energy                      -5.32903304
 Nuclear energy                         0.00000000
 Kinetic energy                         3.43742568
 One electron energy                   -8.31666899
 Two electron energy                    2.88826389
 Virial quotient                       -1.57920653
 Correlation energy                    -0.09937206
 !CI(SD) STATE 1.6 Energy              -5.428405096676

 Properties without orbital relaxation:

 !CI(SD) STATE 1.6 Dipole moment        0.00000000     0.00000000     0.00000000
 Dipole moment /Debye                   0.00000000     0.00000000     0.00000000

 Cluster corrected energies            -5.43408485 (Davidson, fixed reference)
 Cluster corrected energies            -5.43408485 (Davidson, relaxed reference)

 Cluster corrected energies            -5.42840510 (Pople, fixed reference)
 Cluster corrected energies            -5.42840510 (Pople, relaxed reference)

 

 !CI(SD) expec       <1.6|EKIN|1.6>     3.437425683872
 
 !CI(SD) expec        <1.6|POT|1.6>    -3.147066672915


 **********************************************************************************************************************************
 DATASETS  * FILE   NREC   LENGTH (MB)   RECORD NAMES
              1      21       22.81       500      610      700      900      950      970     1000      129      960     1100   
                                          VAR    BASINP    GEOM    SYMINP    ZMAT    AOBASIS   BASIS     P2S    ABASIS      S 
                                         1400     1410     1420     1200     1210     1080     1600     1650     1300     1700   
                                         EKIN       V       ECP      H0       H01     AOSYM     SMH    MOLCAS    ERIS     OPER   
                                         1380   
                                         JKOP   

              2       4        2.78       700     1000      520     2100   
                                         GEOM     BASIS   MCVARS     RHF  

 PROGRAMS   *        TOTAL        CI        HF       INT
 CPU TIMES  *         1.00      0.12      0.10      0.67
 REAL TIME  *         2.73 SEC
 DISK USED  *        34.49 MB      
 **********************************************************************************************************************************
 SETTING POSTHF(I)      =        -5.42840510  AU                              
                                                                                                                                                                                                                                                                

       SCF           POSTHF       EKIN          POT
    -5.32903304   -5.42840510   3.43742568   -3.14706667
                                                  

 CI/USERDEF energy=     -5.428405096676

        CI              HF-SCF  
     -5.42840510     -5.32903304
 **********************************************************************************************************************************
 Variable memory released
