
 Primary working directories    : /global/cscratch1/sd/aannabe
 Secondary working directories  : /global/cscratch1/sd/aannabe
 Wavefunction directory         : /global/homes/a/aannabe/wfu/
 Main file repository           : /global/cscratch1/sd/aannabe/

 SHA1      : 19cd028119e0e09f93f0674bd8af7968d9b3eff6
 NAME      : 2015.1.36
 ARCHNAME  : linux/x86_64
 FC        : /opt/cray/pe/craype/2.5.14/bin/ftn
 BLASLIB   : -L/opt/intel/compilers_and_libraries_2018.1.163/linux/mkl/lib/intel64 -Wl,-_start-group -lmkl_intel_ilp64 -lmkl_intel_thread -lmkl_core -Wl,-_end-group -liomp5
 id        : lbl

 Nodes     nprocs
 nid00476     1

 Using customized tuning parameters: mindgm=7; mindgv=16; mindgc=1; mindgr=1; noblas=0; minvec=7
 default implementation of scratch files=df  

 ***,Na
 memory,512,m
 gthresh,twoint=1.e-12
 
 gprint,basis,orbitals
 gexpec,ekin,pot
 
 angstrom
 geometry={
 1                                                                               ! Number of atoms
 Na 0.0 0.0 0.0
 }
 
 basis={
 Including file /global/homes/a/aannabe/repos/pseudopotentiallibrary/recipes/Na/ccECP_He_core/Na.ccECP.molpro
 Including file /global/homes/a/aannabe/repos/pseudopotentiallibrary/recipes/Na/ccECP_He_core/cc-pCV5Z.molpro
 }
 
 {hf
 wf,9,1,1
 occ,2,1,1,0,1,0,0,0
 open,2.1
 }
 scf(i)=energy
 
 _CC_NORM_MAX=2.0
 {uccsd(t)
 maxit,100
 core
 }
 posthf(i)=energy
 
 table,scf,posthf,ekin,pot
 save,5.csv,new
 
 

 Variables initialized (889), CPU time= 0.00 sec
 Commands  initialized (702), CPU time= 0.01 sec, 572 directives.
 Default parameters read. Elapsed time= 0.12 sec

 Checking input...
 Passed
1


                                         ***  PROGRAM SYSTEM MOLPRO  ***
                                       Copyright, TTI GmbH Stuttgart, 2015
                                    Version 2015.1 linked Dec 29 2018 15:55:43


 **********************************************************************************************************************************
 LABEL *   Na                                                                            
  64 bit serial version                                                                  DATE: 03-Jan-19          TIME: 15:05:27  
 **********************************************************************************************************************************

 SHA1:             19cd028119e0e09f93f0674bd8af7968d9b3eff6
 **********************************************************************************************************************************

 THRESHOLDS:

 ZERO    =  1.00D-12  ONEINT  =  1.00D-12  TWOINT  =  1.00D-12  PREFAC  =  1.00D-14  LOCALI  =  1.00D-09  EORDER  =  1.00D-04
 ENERGY  =  0.00D+00  ETEST   =  0.00D+00  EDENS   =  0.00D+00  THRDEDEF=  1.00D-06  GRADIENT=  1.00D-02  STEP    =  1.00D-03
 ORBITAL =  1.00D-05  CIVEC   =  1.00D-05  COEFF   =  1.00D-04  PRINTCI =  5.00D-02  PUNCHCI =  9.90D+01  OPTGRAD =  3.00D-04
 OPTENERG=  1.00D-06  OPTSTEP =  3.00D-04  THRGRAD =  1.00D-10  COMPRESS=  1.00D-11  VARMIN  =  1.00D-07  VARMAX  =  1.00D-03
 THRDOUB =  0.00D+00  THRDIV  =  1.00D-05  THRRED  =  1.00D-07  THRPSP  =  1.00D+00  THRDC   =  1.00D-10  THRCS   =  1.00D-10
 THRNRM  =  1.00D-08  THREQ   =  0.00D+00  THRDE   =  1.00D+00  THRREF  =  1.00D-05  SPARFAC =  1.00D+00  THRDLP  =  1.00D-07
 THRDIA  =  1.00D-10  THRDLS  =  1.00D-07  THRGPS  =  0.00D+00  THRKEX  =  0.00D+00  THRDIS  =  2.00D-01  THRVAR  =  1.00D-10
 THRLOC  =  1.00D-06  THRGAP  =  1.00D-06  THRLOCT = -1.00D+00  THRGAPT = -1.00D+00  THRORB  =  1.00D-06  THRMLTP =  0.00D+00
 THRCPQCI=  1.00D-10  KEXTA   =  0.00D+00  THRCOARS=  0.00D+00  SYMTOL  =  1.00D-06  GRADTOL =  1.00D-06  THROVL  =  1.00D-08
 THRORTH =  1.00D-08  GRID    =  1.00D-06  GRIDMAX =  1.00D-03  DTMAX   =  0.00D+00  THROCCDE=  1.00D-01  THROCCDE=  1.00D-01



 ZUNIT=ANG
 

Geometry recognized as XYZ


 Variable memory set to  512000000 words,  buffer space   230000 words

 SETTING BASIS          =    USERDEF


 Recomputing integrals since basis changed


 Using spherical harmonics



 PROGRAM * SEWARD (Integral evaluation for generally contracted gaussian basis sets)     Author: Roland Lindh, 1990

 Geometry written to block  1 of record 700

 Orientation using atomic masses  
 Molecule type: Atom
 Symmetry elements: X,Y,Z
 Rotational constants:       0.0000000      0.0000000      0.0000000 GHz  (calculated with average atomic masses)

 Point group  D2h 



 ATOMIC COORDINATES

 NR  ATOM    CHARGE       X              Y              Z

   1  NA      1.00    0.000000000    0.000000000    0.000000000


          NA  CORE POTENTIAL

          d POTENTIAL

 POWERS             1              3              2              1              1
 EXPONENTIALS   8.997115       8.958240       8.691287       0.000000       0.000000    
 COEFFICIENTS   9.000000       80.97404      -57.11799       1.000000      -9.000000    

          s - d POTENTIAL

 POWERS             2              2
 EXPONENTIALS   61.00436       14.82952    
 COEFFICIENTS   25.19460       60.93358    

          p - d POTENTIAL

 POWERS             2
 EXPONENTIALS   1.000000    
 COEFFICIENTS   0.000000    


 BASIS DATA

   Nr Sym  Nuc  Type         Exponents   Contraction coefficients

    1.1 Ag    1  1s          50.364926    -0.001449    0.000212
    2.1 Ag                   24.480199    -0.000590    0.000379
                             11.898760    -0.118818    0.019582
                              5.783470    -0.010856    0.000623
                              2.811093     0.250783   -0.045781
                              1.366350     0.447276   -0.088728
                              0.664123     0.347254   -0.112952
                              0.322801     0.080652   -0.108396
                              0.156900     0.001208    0.009901
                              0.076262     0.000409    0.355418
                              0.037068     0.000112    0.561451
                              0.018017     0.000072    0.198998
    3.1 Ag    1  1s          24.563827     1.000000
    4.1 Ag    1  1s          12.425151     1.000000
    5.1 Ag    1  1s           6.285029     1.000000
    6.1 Ag    1  1s           3.179164     1.000000
    7.1 Ag    1  1s           1.552511     1.000000
    8.1 Ag    1  1s           0.555267     1.000000
    9.1 Ag    1  1s           0.198595     1.000000
   10.1 Ag    1  1s           0.071029     1.000000
   11.1 Ag    1  3d0         17.048708     1.000000
   12.1 Ag    1  3d2+        17.048708     1.000000
   13.1 Ag    1  3d0          9.115128     1.000000
   14.1 Ag    1  3d2+         9.115128     1.000000
   15.1 Ag    1  3d0          4.873423     1.000000
   16.1 Ag    1  3d2+         4.873423     1.000000
   17.1 Ag    1  3d0          2.605586     1.000000
   18.1 Ag    1  3d2+         2.605586     1.000000
   19.1 Ag    1  3d0          1.195177     1.000000
   20.1 Ag    1  3d2+         1.195177     1.000000
   21.1 Ag    1  3d0          0.443453     1.000000
   22.1 Ag    1  3d2+         0.443453     1.000000
   23.1 Ag    1  3d0          0.164537     1.000000
   24.1 Ag    1  3d2+         0.164537     1.000000
   25.1 Ag    1  3d0          0.061049     1.000000
   26.1 Ag    1  3d2+         0.061049     1.000000
   27.1 Ag    1  5g0          7.242275     1.000000
   28.1 Ag    1  5g4+         7.242275     1.000000
   29.1 Ag    1  5g2+         7.242275     1.000000
   30.1 Ag    1  5g0          2.624586     1.000000
   31.1 Ag    1  5g4+         2.624586     1.000000
   32.1 Ag    1  5g2+         2.624586     1.000000
   33.1 Ag    1  5g0          0.237124     1.000000
   34.1 Ag    1  5g4+         0.237124     1.000000
   35.1 Ag    1  5g2+         0.237124     1.000000
   36.1 Ag    1  5g0          0.125449     1.000000
   37.1 Ag    1  5g4+         0.125449     1.000000
   38.1 Ag    1  5g2+         0.125449     1.000000
    1.2 B3u   1  2px         77.769943     0.000054   -0.000656
    2.2 B3u                  42.060816    -0.000016    0.003137
                             22.748020     0.012571   -0.011004
                             12.302957     0.079601    0.009376
                              6.653887     0.140442   -0.066479
                              3.598664     0.212141    0.058959
                              1.946289     0.261799   -0.221050
                              1.052624     0.255820    0.303491
                              0.569297     0.180359   -0.671705
                              0.307897     0.072165    1.064360
                              0.166522     0.010663   -1.530489
                              0.090061     0.001538    1.843167
    3.2 B3u   1  2px          8.518462     1.000000
    4.2 B3u   1  2px          4.418427     1.000000
    5.2 B3u   1  2px          2.291787     1.000000
    6.2 B3u   1  2px          1.188723     1.000000
    7.2 B3u   1  2px          0.527875     1.000000
    8.2 B3u   1  2px          0.214862     1.000000
    9.2 B3u   1  2px          0.087455     1.000000
   10.2 B3u   1  2px          0.035597     1.000000
   11.2 B3u   1  4f1+        10.032892     1.000000
   12.2 B3u   1  4f3+        10.032892     1.000000
   13.2 B3u   1  4f1+         4.126205     1.000000
   14.2 B3u   1  4f3+         4.126205     1.000000
   15.2 B3u   1  4f1+         1.696975     1.000000
   16.2 B3u   1  4f3+         1.696975     1.000000
   17.2 B3u   1  4f1+         0.292980     1.000000
   18.2 B3u   1  4f3+         0.292980     1.000000
   19.2 B3u   1  4f1+         0.161813     1.000000
   20.2 B3u   1  4f3+         0.161813     1.000000
   21.2 B3u   1  4f1+         0.089369     1.000000
   22.2 B3u   1  4f3+         0.089369     1.000000
   23.2 B3u   1  6h1+         5.149967     1.000000
   24.2 B3u   1  6h3+         5.149967     1.000000
   25.2 B3u   1  6h5+         5.149967     1.000000
   26.2 B3u   1  6h1+         0.249975     1.000000
   27.2 B3u   1  6h3+         0.249975     1.000000
   28.2 B3u   1  6h5+         0.249975     1.000000
    1.3 B2u   1  2py         77.769943     0.000054   -0.000656
    2.3 B2u                  42.060816    -0.000016    0.003137
                             22.748020     0.012571   -0.011004
                             12.302957     0.079601    0.009376
                              6.653887     0.140442   -0.066479
                              3.598664     0.212141    0.058959
                              1.946289     0.261799   -0.221050
                              1.052624     0.255820    0.303491
                              0.569297     0.180359   -0.671705
                              0.307897     0.072165    1.064360
                              0.166522     0.010663   -1.530489
                              0.090061     0.001538    1.843167
    3.3 B2u   1  2py          8.518462     1.000000
    4.3 B2u   1  2py          4.418427     1.000000
    5.3 B2u   1  2py          2.291787     1.000000
    6.3 B2u   1  2py          1.188723     1.000000
    7.3 B2u   1  2py          0.527875     1.000000
    8.3 B2u   1  2py          0.214862     1.000000
    9.3 B2u   1  2py          0.087455     1.000000
   10.3 B2u   1  2py          0.035597     1.000000
   11.3 B2u   1  4f1-        10.032892     1.000000
   12.3 B2u   1  4f3-        10.032892     1.000000
   13.3 B2u   1  4f1-         4.126205     1.000000
   14.3 B2u   1  4f3-         4.126205     1.000000
   15.3 B2u   1  4f1-         1.696975     1.000000
   16.3 B2u   1  4f3-         1.696975     1.000000
   17.3 B2u   1  4f1-         0.292980     1.000000
   18.3 B2u   1  4f3-         0.292980     1.000000
   19.3 B2u   1  4f1-         0.161813     1.000000
   20.3 B2u   1  4f3-         0.161813     1.000000
   21.3 B2u   1  4f1-         0.089369     1.000000
   22.3 B2u   1  4f3-         0.089369     1.000000
   23.3 B2u   1  6h1-         5.149967     1.000000
   24.3 B2u   1  6h3-         5.149967     1.000000
   25.3 B2u   1  6h5-         5.149967     1.000000
   26.3 B2u   1  6h1-         0.249975     1.000000
   27.3 B2u   1  6h3-         0.249975     1.000000
   28.3 B2u   1  6h5-         0.249975     1.000000
    1.4 B1g   1  3d2-        17.048708     1.000000
    2.4 B1g   1  3d2-         9.115128     1.000000
    3.4 B1g   1  3d2-         4.873423     1.000000
    4.4 B1g   1  3d2-         2.605586     1.000000
    5.4 B1g   1  3d2-         1.195177     1.000000
    6.4 B1g   1  3d2-         0.443453     1.000000
    7.4 B1g   1  3d2-         0.164537     1.000000
    8.4 B1g   1  3d2-         0.061049     1.000000
    9.4 B1g   1  5g2-         7.242275     1.000000
   10.4 B1g   1  5g4-         7.242275     1.000000
   11.4 B1g   1  5g2-         2.624586     1.000000
   12.4 B1g   1  5g4-         2.624586     1.000000
   13.4 B1g   1  5g2-         0.237124     1.000000
   14.4 B1g   1  5g4-         0.237124     1.000000
   15.4 B1g   1  5g2-         0.125449     1.000000
   16.4 B1g   1  5g4-         0.125449     1.000000
    1.5 B1u   1  2pz         77.769943     0.000054   -0.000656
    2.5 B1u                  42.060816    -0.000016    0.003137
                             22.748020     0.012571   -0.011004
                             12.302957     0.079601    0.009376
                              6.653887     0.140442   -0.066479
                              3.598664     0.212141    0.058959
                              1.946289     0.261799   -0.221050
                              1.052624     0.255820    0.303491
                              0.569297     0.180359   -0.671705
                              0.307897     0.072165    1.064360
                              0.166522     0.010663   -1.530489
                              0.090061     0.001538    1.843167
    3.5 B1u   1  2pz          8.518462     1.000000
    4.5 B1u   1  2pz          4.418427     1.000000
    5.5 B1u   1  2pz          2.291787     1.000000
    6.5 B1u   1  2pz          1.188723     1.000000
    7.5 B1u   1  2pz          0.527875     1.000000
    8.5 B1u   1  2pz          0.214862     1.000000
    9.5 B1u   1  2pz          0.087455     1.000000
   10.5 B1u   1  2pz          0.035597     1.000000
   11.5 B1u   1  4f0         10.032892     1.000000
   12.5 B1u   1  4f2+        10.032892     1.000000
   13.5 B1u   1  4f0          4.126205     1.000000
   14.5 B1u   1  4f2+         4.126205     1.000000
   15.5 B1u   1  4f0          1.696975     1.000000
   16.5 B1u   1  4f2+         1.696975     1.000000
   17.5 B1u   1  4f0          0.292980     1.000000
   18.5 B1u   1  4f2+         0.292980     1.000000
   19.5 B1u   1  4f0          0.161813     1.000000
   20.5 B1u   1  4f2+         0.161813     1.000000
   21.5 B1u   1  4f0          0.089369     1.000000
   22.5 B1u   1  4f2+         0.089369     1.000000
   23.5 B1u   1  6h2+         5.149967     1.000000
   24.5 B1u   1  6h4+         5.149967     1.000000
   25.5 B1u   1  6h0          5.149967     1.000000
   26.5 B1u   1  6h2+         0.249975     1.000000
   27.5 B1u   1  6h4+         0.249975     1.000000
   28.5 B1u   1  6h0          0.249975     1.000000
    1.6 B2g   1  3d1+        17.048708     1.000000
    2.6 B2g   1  3d1+         9.115128     1.000000
    3.6 B2g   1  3d1+         4.873423     1.000000
    4.6 B2g   1  3d1+         2.605586     1.000000
    5.6 B2g   1  3d1+         1.195177     1.000000
    6.6 B2g   1  3d1+         0.443453     1.000000
    7.6 B2g   1  3d1+         0.164537     1.000000
    8.6 B2g   1  3d1+         0.061049     1.000000
    9.6 B2g   1  5g1+         7.242275     1.000000
   10.6 B2g   1  5g3+         7.242275     1.000000
   11.6 B2g   1  5g1+         2.624586     1.000000
   12.6 B2g   1  5g3+         2.624586     1.000000
   13.6 B2g   1  5g1+         0.237124     1.000000
   14.6 B2g   1  5g3+         0.237124     1.000000
   15.6 B2g   1  5g1+         0.125449     1.000000
   16.6 B2g   1  5g3+         0.125449     1.000000
    1.7 B3g   1  3d1-        17.048708     1.000000
    2.7 B3g   1  3d1-         9.115128     1.000000
    3.7 B3g   1  3d1-         4.873423     1.000000
    4.7 B3g   1  3d1-         2.605586     1.000000
    5.7 B3g   1  3d1-         1.195177     1.000000
    6.7 B3g   1  3d1-         0.443453     1.000000
    7.7 B3g   1  3d1-         0.164537     1.000000
    8.7 B3g   1  3d1-         0.061049     1.000000
    9.7 B3g   1  5g1-         7.242275     1.000000
   10.7 B3g   1  5g3-         7.242275     1.000000
   11.7 B3g   1  5g1-         2.624586     1.000000
   12.7 B3g   1  5g3-         2.624586     1.000000
   13.7 B3g   1  5g1-         0.237124     1.000000
   14.7 B3g   1  5g3-         0.237124     1.000000
   15.7 B3g   1  5g1-         0.125449     1.000000
   16.7 B3g   1  5g3-         0.125449     1.000000
    1.8 Au    1  4f2-        10.032892     1.000000
    2.8 Au    1  4f2-         4.126205     1.000000
    3.8 Au    1  4f2-         1.696975     1.000000
    4.8 Au    1  4f2-         0.292980     1.000000
    5.8 Au    1  4f2-         0.161813     1.000000
    6.8 Au    1  4f2-         0.089369     1.000000
    7.8 Au    1  6h4-         5.149967     1.000000
    8.8 Au    1  6h2-         5.149967     1.000000
    9.8 Au    1  6h4-         0.249975     1.000000
   10.8 Au    1  6h2-         0.249975     1.000000

 NUCLEAR CHARGE:                    1
 NUMBER OF PRIMITIVE AOS:         290
 NUMBER OF SYMMETRY AOS:          220
 NUMBER OF CONTRACTIONS:          180   (  38Ag  +  28B3u +  28B2u +  16B1g +  28B1u +  16B2g +  16B3g +  10Au  )
 NUMBER OF CORE ORBITALS:           0   (   0Ag  +   0B3u +   0B2u +   0B1g +   0B1u +   0B2g +   0B3g +   0Au  )
 NUMBER OF VALENCE ORBITALS:        4   (   1Ag  +   1B3u +   1B2u +   0B1g +   1B1u +   0B2g +   0B3g +   0Au  )


 NUCLEAR REPULSION ENERGY    0.00000000

 EXTRA SYMMETRY OF AOS IN SYMMETRY 1:   1 1 1 1 1 1 1 1 1 1   2 3 2 3 2 3 2 3 2 3   2 3 2 3 2 3 4 5 6 4   5 6 4 5 6 4 5 6
 EXTRA SYMMETRY OF AOS IN SYMMETRY 2:   1 1 1 1 1 1 1 1 1 1   2 3 2 3 2 3 2 3 2 3   2 3 4 5 6 4 5 6
 EXTRA SYMMETRY OF AOS IN SYMMETRY 3:   1 1 1 1 1 1 1 1 1 1   2 3 2 3 2 3 2 3 2 3   2 3 4 5 6 4 5 6
 EXTRA SYMMETRY OF AOS IN SYMMETRY 4:   1 1 1 1 1 1 1 1 2 3   2 3 2 3 2 3
 EXTRA SYMMETRY OF AOS IN SYMMETRY 5:   1 1 1 1 1 1 1 1 1 1   2 3 2 3 2 3 2 3 2 3   2 3 4 5 6 4 5 6
 EXTRA SYMMETRY OF AOS IN SYMMETRY 6:   1 1 1 1 1 1 1 1 2 3   2 3 2 3 2 3
 EXTRA SYMMETRY OF AOS IN SYMMETRY 7:   1 1 1 1 1 1 1 1 2 3   2 3 2 3 2 3
 EXTRA SYMMETRY OF AOS IN SYMMETRY 8:   1 1 1 1 1 1 2 3 2 3

 Eigenvalues of metric

         1 0.103E-04 0.877E-03 0.648E-02 0.667E-02 0.667E-02 0.149E-01 0.433E-01 0.461E-01
         2 0.121E-03 0.111E-02 0.420E-02 0.253E-01 0.453E-01 0.453E-01 0.757E-01 0.172E+00
         3 0.121E-03 0.111E-02 0.420E-02 0.253E-01 0.453E-01 0.453E-01 0.757E-01 0.172E+00
         4 0.667E-02 0.461E-01 0.125E+00 0.239E+00 0.239E+00 0.305E+00 0.494E+00 0.494E+00
         5 0.121E-03 0.111E-02 0.420E-02 0.253E-01 0.453E-01 0.453E-01 0.757E-01 0.172E+00
         6 0.667E-02 0.461E-01 0.125E+00 0.239E+00 0.239E+00 0.305E+00 0.494E+00 0.494E+00
         7 0.667E-02 0.461E-01 0.125E+00 0.239E+00 0.239E+00 0.305E+00 0.494E+00 0.494E+00
         8 0.453E-01 0.172E+00 0.500E+00 0.815E+00 0.996E+00 0.996E+00 0.100E+01 0.100E+01


 Contracted 2-electron integrals neglected if value below      1.0D-12
 AO integral compression algorithm  1   Integral accuracy      1.0D-12

     106.693 MB (compressed) written to integral file ( 46.4%)


 NUMBER OF SORTED TWO-ELECTRON INTEGRALS:   17097403.     BUFFER LENGTH:  32768
 NUMBER OF SEGMENTS:   2  SEGMENT LENGTH:   15999355      RECORD LENGTH: 524288

 Memory used in sort:      16.56 MW

 SORT1 READ    28755968. AND WROTE    12138225. INTEGRALS IN     36 RECORDS. CPU TIME:     0.82 SEC, REAL TIME:     1.13 SEC
 SORT2 READ    12138225. AND WROTE    17097403. INTEGRALS IN    407 RECORDS. CPU TIME:     0.55 SEC, REAL TIME:     2.06 SEC

 FILE SIZES:   FILE 1:   127.3 MBYTE,  FILE 4:   151.0 MBYTE,   TOTAL:    278.4 MBYTE

 OPERATOR DM      FOR CENTER  0  COORDINATES:    0.000000    0.000000    0.000000
 OPERATOR EKIN    FOR CENTER  0  COORDINATES:    0.000000    0.000000    0.000000
 OPERATOR POT     FOR CENTER  0  COORDINATES:    0.000000    0.000000    0.000000


 **********************************************************************************************************************************
 DATASETS  * FILE   NREC   LENGTH (MB)   RECORD NAMES
              1      20       83.63       500      610      700      900      950      970     1000      129      960     1100   
                                          VAR    BASINP    GEOM    SYMINP    ZMAT    AOBASIS   BASIS     P2S    ABASIS      S 
                                         1400     1410     1420     1200     1210     1080     1600     1650     1300     1700   
                                         EKIN       V       ECP      H0       H01     AOSYM     SMH    MOLCAS    ERIS     OPER   

 PROGRAMS   *        TOTAL       INT
 CPU TIMES  *         7.57      7.45
 REAL TIME  *        21.90 SEC
 DISK USED  *       278.69 MB      
 **********************************************************************************************************************************


 PROGRAM * RHF-SCF (OPEN SHELL)       Authors: W. Meyer, H.-J. Werner


 NUMBER OF ELECTRONS:       5+    4-    SPACE SYMMETRY=1    SPIN SYMMETRY: Doublet 
 CONVERGENCE THRESHOLDS:    1.00E-05 (Density)    1.00E-07 (Energy)
 MAX. NUMBER OF ITERATIONS:       60
 INTERPOLATION TYPE:            DIIS
 INTERPOLATION STEPS:              2 (START)      1 (STEP)
 LEVEL SHIFTS:                 -0.60 (CLOSED) -0.30 (OPEN) 


 Singly occupied orbitals:      2.1

   Atom=NA basis=ECP10SDF_GUESS    lmin=0  lmax=0

 Orbital guess generated from atomic densities. Full valence occupancy:    1   0   0   0   0   0   0   0


 Molecular orbital dump at record        2100.2

 ITERATION    DDIFF          GRAD             ENERGY        2-EL.EN.            DIPOLE MOMENTS         DIIS   ORB.
    1      0.000D+00      0.000D+00       -40.22430462     95.333853    0.00000    0.00000    0.00000    0    start
    2      0.000D+00      0.364D+00       -46.59723374     55.619328    0.00000    0.00000    0.00000    1    diag,B
    3      0.193D+00      0.113D+00       -47.34024372     64.357320    0.00000    0.00000    0.00000    2    diag,B
    4      0.544D-01      0.105D-01       -47.35380287     64.584764    0.00000    0.00000    0.00000    3    diag,B
    5      0.257D-01      0.260D-02       -47.35615164     64.695467    0.00000    0.00000    0.00000    4    diag,B
    6      0.171D-01      0.572D-03       -47.35678180     64.780634    0.00000    0.00000    0.00000    5    diag,B
    7      0.986D-02      0.307D-03       -47.35711040     64.869045    0.00000    0.00000    0.00000    6    fixocc
    8      0.736D-02      0.121D-03       -47.35715894     64.915830    0.00000    0.00000    0.00000    7    diag,B
    9      0.272D-02      0.185D-04       -47.35715947     64.920857    0.00000    0.00000    0.00000    8    diag,B
   10      0.179D-03      0.330D-05       -47.35715948     64.921309    0.00000    0.00000    0.00000    9    orth
   11      0.242D-04      0.319D-06       -47.35715948     64.921328    0.00000    0.00000    0.00000    9    diag,B
   12      0.355D-05      0.301D-07       -47.35715948     64.921330    0.00000    0.00000    0.00000    0    orth

 Final alpha occupancy:   2   1   1   0   1   0   0   0
 Final beta  occupancy:   1   1   1   0   1   0   0   0

 !RHF STATE 1.1 Energy                -47.357159476880
 Nuclear energy                         0.00000000
 One-electron energy                  -79.81782431
 Two-electron energy                   32.46066484
 Virial quotient                       -1.29648211
 !RHF STATE 1.1 Dipole moment           0.00000000     0.00000000     0.00000000
 Dipole moment /Debye                   0.00000000     0.00000000     0.00000000
 

 !RHF expec          <1.1|EKIN|1.1>    36.527429860867
 
 !RHF expec           <1.1|POT|1.1>   -13.342646762500

 ELECTRON ORBITALS
 =================


   Orb  Occ    Energy  Couls-En    Coefficients

                                   1 1s      1 1s      1 1s      1 1s      1 1s      1 1s      1 1s      1 1s      1 1s      1 1s   
                                   1 3d0     1 3d2+    1 3d0     1 3d2+    1 3d0     1 3d2+    1 3d0     1 3d2+    1 3d0     1 3d2+ 
                                   1 3d0     1 3d2+    1 3d0     1 3d2+    1 3d0     1 3d2+    1 5g0     1 5g4+    1 5g2+    1 5g0  
                                   1 5g4+    1 5g2+    1 5g0     1 5g4+    1 5g2+    1 5g0     1 5g4+    1 5g2+ 

   1.1   2    -2.7672  -13.1809  1.003873  0.000030  0.000004  0.000443  0.000030 -0.000514 -0.002193 -0.001616  0.000036 -0.000072
                                 0.000000 -0.000000 -0.000000  0.000000  0.000000 -0.000000 -0.000000  0.000000  0.000000 -0.000000
                                -0.000000  0.000000  0.000000 -0.000000 -0.000000  0.000000  0.000000 -0.000000 -0.000000 -0.000000
                                 0.000000  0.000000 -0.000000 -0.000000 -0.000000  0.000000 -0.000000  0.000000

   2.1   +    -0.1822   -2.6440 -0.002626 -1.000042 -0.000004 -0.000300 -0.000024  0.000360  0.001465  0.001123 -0.000070  0.000095
                                -0.000000  0.000000  0.000000 -0.000000 -0.000000  0.000000  0.000000 -0.000000 -0.000000  0.000000
                                -0.000000  0.000000  0.000000  0.000000  0.000000  0.000000 -0.000000  0.000000  0.000000  0.000000
                                -0.000000 -0.000000 -0.000000  0.000000  0.000000  0.000000  0.000000 -0.000000

                                   1 2px     1 2px     1 2px     1 2px     1 2px     1 2px     1 2px     1 2px     1 2px     1 2px  
                                   1 4f1+    1 4f3+    1 4f1+    1 4f3+    1 4f1+    1 4f3+    1 4f1+    1 4f3+    1 4f1+    1 4f3+ 
                                   1 4f1+    1 4f3+    1 6h1+    1 6h3+    1 6h5+    1 6h1+    1 6h3+    1 6h5+ 

   1.2   2    -1.5300  -10.9514  0.999884 -0.000459  0.000013 -0.000007  0.000039 -0.000022  0.000050 -0.000076  0.000352  0.000193
                                -0.000000 -0.000000  0.000000  0.000000 -0.000000 -0.000000  0.000000  0.000000 -0.000000 -0.000000
                                 0.000000  0.000000  0.000000  0.000000 -0.000000 -0.000000  0.000000 -0.000000

                                   1 2py     1 2py     1 2py     1 2py     1 2py     1 2py     1 2py     1 2py     1 2py     1 2py  
                                   1 4f1-    1 4f3-    1 4f1-    1 4f3-    1 4f1-    1 4f3-    1 4f1-    1 4f3-    1 4f1-    1 4f3- 
                                   1 4f1-    1 4f3-    1 6h1-    1 6h3-    1 6h5-    1 6h1-    1 6h3-    1 6h5- 

   1.3   2    -1.5300  -10.9514  0.999884 -0.000459  0.000013 -0.000007  0.000039 -0.000022  0.000050 -0.000076  0.000352  0.000193
                                -0.000000  0.000000  0.000000 -0.000000 -0.000000  0.000000  0.000000 -0.000000 -0.000000  0.000000
                                 0.000000 -0.000000  0.000000 -0.000000 -0.000000 -0.000000 -0.000000 -0.000000

                                   1 2pz     1 2pz     1 2pz     1 2pz     1 2pz     1 2pz     1 2pz     1 2pz     1 2pz     1 2pz  
                                   1 4f0     1 4f2+    1 4f0     1 4f2+    1 4f0     1 4f2+    1 4f0     1 4f2+    1 4f0     1 4f2+ 
                                   1 4f0     1 4f2+    1 6h2+    1 6h4+    1 6h0     1 6h2+    1 6h4+    1 6h0  

   1.5   2    -1.5300  -10.9514  0.999884 -0.000459  0.000013 -0.000007  0.000039 -0.000022  0.000050 -0.000076  0.000352  0.000193
                                 0.000000 -0.000000 -0.000000  0.000000  0.000000 -0.000000 -0.000000  0.000000  0.000000 -0.000000
                                -0.000000  0.000000 -0.000000 -0.000000  0.000000  0.000000 -0.000000 -0.000000

 HOMO      2.1    -0.182225 =      -4.9586eV
 LUMO      2.2     0.035151 =       0.9565eV
 LUMO-HOMO         0.217376 =       5.9151eV


 **********************************************************************************************************************************
 DATASETS  * FILE   NREC   LENGTH (MB)   RECORD NAMES
              1      20       83.63       500      610      700      900      950      970     1000      129      960     1100   
                                          VAR    BASINP    GEOM    SYMINP    ZMAT    AOBASIS   BASIS     P2S    ABASIS      S 
                                         1400     1410     1420     1200     1210     1080     1600     1650     1300     1700   
                                         EKIN       V       ECP      H0       H01     AOSYM     SMH    MOLCAS    ERIS     OPER   

              2       4        2.91       700     1000      520     2100   
                                         GEOM     BASIS   MCVARS     RHF  

 PROGRAMS   *        TOTAL        HF       INT
 CPU TIMES  *         8.38      0.81      7.45
 REAL TIME  *        23.01 SEC
 DISK USED  *       278.69 MB      
 **********************************************************************************************************************************
 SETTING SCF(I)         =       -47.35715948  AU                              
 SETTING _CC_NORM_MAX   =         2.00000000                                  


 PROGRAM * CCSD (Unrestricted open-shell coupled cluster)     Authors: C. Hampel, H.-J. Werner, 1991, M. Deegan, P.J. Knowles, 1992


 Convergence thresholds:  THRVAR = 1.00D-08  THRDEN = 1.00D-06

 CCSD(T)     terms to be evaluated (factor= 1.000)


 Number of closed-shell orbitals:   4 (   1   1   1   0   1   0   0   0 )
 Number of active  orbitals:        1 (   1   0   0   0   0   0   0   0 )
 Number of external orbitals:     175 (  36  27  27  16  27  16  16  10 )

 Memory could be reduced to 8.64 Mwords without degradation in triples

 Number of N-1 electron functions:               9
 Number of N-2 electron functions:              36
 Number of singly external CSFs:               273
 Number of doubly external CSFs:            112111
 Total number of CSFs:                      112384

 Molecular orbitals read from record     2100.2  Type=RHF/CANONICAL (state 1.1)

 Integral transformation finished. Total CPU:   0.21 sec, npass=  1  Memory used:   1.33 MW

 Starting RMP2 calculation

 ITER.      SQ.NORM     CORR.ENERGY   TOTAL ENERGY   ENERGY CHANGE        DEN1      VAR(S)    VAR(P)  DIIS     TIME
   1      1.02575235    -0.30425398   -47.66141346    -0.30425398    -0.00011185  0.74D-07  0.17D-04  1  1     0.22
   2      1.02578905    -0.30436850   -47.66152798    -0.00011452    -0.00000003  0.23D-09  0.97D-08  2  2     0.22
   3      1.02578964    -0.30436934   -47.66152882    -0.00000084    -0.00000000  0.34D-12  0.92D-11  3  3     0.23

 Norm of t1 vector:      0.00405083      S-energy:    -0.00003242      T1 diagnostic:  0.00001331
 Norm of t2 vector:      0.16054043      P-energy:    -0.30433692
                                         Alpha-Beta:  -0.23394238
                                         Alpha-Alpha: -0.03649601
                                         Beta-Beta:   -0.03389853

 Spin contamination <S**2-Sz**2-Sz>     0.00002228
  Reference energy                    -47.357159476880
  RHF-RMP2 correlation energy          -0.304369340241
 !RHF-RMP2 energy                     -47.661528817121

 Starting UCCSD calculation

 ITER.      SQ.NORM     CORR.ENERGY   TOTAL ENERGY   ENERGY CHANGE        DEN1      VAR(S)    VAR(P)  DIIS     TIME
   1      1.02648078    -0.30714320   -47.66430268    -0.30714320    -0.00215551  0.24D-03  0.15D-03  1  1     0.59
   2      1.02748066    -0.30928894   -47.66644842    -0.00214574    -0.00009342  0.50D-04  0.11D-04  2  2     0.95
   3      1.02789555    -0.30953724   -47.66669672    -0.00024830    -0.00001297  0.20D-04  0.35D-06  3  3     1.31
   4      1.02817013    -0.30961355   -47.66677303    -0.00007631    -0.00000291  0.57D-05  0.50D-07  4  4     1.69
   5      1.02835170    -0.30963479   -47.66679427    -0.00002124    -0.00000046  0.91D-06  0.10D-07  5  5     2.05
   6      1.02844915    -0.30964654   -47.66680602    -0.00001175    -0.00000002  0.41D-07  0.50D-09  6  6     2.42
   7      1.02846649    -0.30964779   -47.66680727    -0.00000125    -0.00000000  0.20D-08  0.32D-10  6  1     2.77
   8      1.02846966    -0.30964789   -47.66680737    -0.00000010    -0.00000000  0.74D-10  0.32D-11  6  2     3.12

 Norm of t1 vector:      0.03621398      S-energy:    -0.00004135      T1 diagnostic:  0.00844320
                                                                       D1 diagnostic:  0.02293326
 Norm of t2 vector:      0.16479748      P-energy:    -0.30960654
                                         Alpha-Beta:  -0.24201156
                                         Alpha-Alpha: -0.03529078
                                         Beta-Beta:   -0.03230420

 Spin contamination <S**2-Sz**2-Sz>     0.00007695

 Memory could be reduced to 8.69 Mwords without degradation in triples
 

 RESULTS
 =======

  Reference energy                    -47.357159476880
  UCCSD singles energy                 -0.000041353460
  UCCSD pair energy                    -0.309606540142
  UCCSD correlation energy             -0.309647893601
  Triples (T) contribution             -0.004335427214
  Total correlation energy             -0.313983320815
 
  RHF-UCCSD energy                    -47.666807370482
  RHF-UCCSD[T] energy                 -47.671220731000
  RHF-UCCSD-T energy                  -47.671103470462
 !RHF-UCCSD(T) energy                 -47.671142797696

 Program statistics:

 Available memory in ccsd:               511999650
 Min. memory needed in ccsd:                430391
 Max. memory used in ccsd:                  551453
 Max. memory used in cckext:                475791 ( 8 integral passes)
 Max. memory used in cckint:               1329387 ( 1 integral passes)



 **********************************************************************************************************************************
 DATASETS  * FILE   NREC   LENGTH (MB)   RECORD NAMES
              1      20       83.63       500      610      700      900      950      970     1000      129      960     1100   
                                          VAR    BASINP    GEOM    SYMINP    ZMAT    AOBASIS   BASIS     P2S    ABASIS      S 
                                         1400     1410     1420     1200     1210     1080     1600     1650     1300     1700   
                                         EKIN       V       ECP      H0       H01     AOSYM     SMH    MOLCAS    ERIS     OPER   

              2       4        2.91       700     1000      520     2100   
                                         GEOM     BASIS   MCVARS     RHF  

 PROGRAMS   *        TOTAL  UCCSD(T)        HF       INT
 CPU TIMES  *        14.17      5.79      0.81      7.45
 REAL TIME  *        76.83 SEC
 DISK USED  *       278.69 MB      
 **********************************************************************************************************************************
 SETTING POSTHF(I)      =       -47.67114280  AU                              
                                                                                                                                                                                                                                                                

        SCF            POSTHF        EKIN           POT
    -47.35715948   -47.67114280   36.52742986   -13.34264676
                                                  

 UCCSD(T)/USERDEF energy=    -47.671142797696

        UCCSD(T)        HF-SCF  
    -47.67114280    -47.35715948
 **********************************************************************************************************************************
 Molpro calculation terminated
 Variable memory released
