
 Primary working directories    : /global/cscratch1/sd/aannabe
 Secondary working directories  : /global/cscratch1/sd/aannabe
 Wavefunction directory         : /global/homes/a/aannabe/wfu/
 Main file repository           : /global/cscratch1/sd/aannabe/

 SHA1      : 2873118e99aab1bc19f5b6fc1784693c06d15c95
 NAME      : 2015.1.8
 ARCHNAME  : linux/x86_64
 FC        : /opt/cray/pe/craype/2.5.5/bin/ftn
 BLASLIB   : -Wl,-_start-group /opt/intel/compilers_and_libraries_2016.3.210/linux/mkl/lib/intel64/libmkl_intel_ilp64.a /opt/intel/compilers_and_libraries_2016.3.210/linux/mkl/lib/intel64/libmkl_intel_thread.a /opt/intel/compilers_and_libraries_2016.3.210/linux/mkl/lib/intel64/libmkl_core.a -Wl,-_end-group
 id        : lbl

 Nodes     nprocs
 nid00494     1

 Using customized tuning parameters: mindgm=8; mindgv=16; mindgc=4; mindgr=1; noblas=0; minvec=7
 default implementation of scratch files=df  

 ***,Al
 memory,8,g
 gthresh,twoint=1.e-12
 
 gprint,basis,orbitals
 gexpec,ekin,pot
 
 angstrom
 geometry={
 1                                                                               ! Number of atoms
 Al 0.0 0.0 0.0
 }
 
 basis={
 Including file /global/homes/a/aannabe/docs/accurate/ccECP_Kh/pps/Al.pp
 Including file /global/homes/a/aannabe/docs/accurate/ccECP_Kh/basis/aug-cc-pVnZ/Al_dz.basis
 }
 
 {rhf
  start,atden
  wf,3,2,1
  occ,1,1,0,0,0,0,0,0
  open,1.2
  save,4202.2
 }
 {multi
  start,4202.2
  occ,1,1,1,0,1,0,0
  closed,1,0,0,0,0,0,0,0
  wf,3,2,1;state,1
  wf,3,3,1;state,1
  wf,3,5,1;state,1
  natorb,ci,print
  orbital,5202.2
 }
 {rhf,nitord=1,maxit=0
  start,5202.2
  wf,3,2,1
  occ,1,1,0,0,0,0,0,0
  open,1.2
 }
 
 scf(i)=energy
 
 _CC_NORM_MAX=2.0
  !NOTE: Perturbative MRCC works only with UHF reference. So, here we will trick MRCC by doing zero UHF iteration right after ROHF.
 
 {uhf
 maxit,0
 }
 scf(i)=energy
 
 {mrcc,method=CCSDT(Q)
 orbital,ignore_error=1                                                          !Ignore the fact that UHF WF is not converged
 maxit,100
 core
 }
 posthf(i)=energy
 
 table,scf,posthf,ekin,pot
 save,2.csv,new
 
 

 Variables initialized (889), CPU time= 0.00 sec
 Commands  initialized (702), CPU time= 0.02 sec, 572 directives.
 Default parameters read. Elapsed time= 0.14 sec

 Checking input...
 Passed
1


                                         ***  PROGRAM SYSTEM MOLPRO  ***
                                       Copyright, TTI GmbH Stuttgart, 2015
                                    Version 2015.1 linked Sep  7 2016 23:09:38


 **********************************************************************************************************************************
 LABEL *   Al                                                                            
  64 bit serial version                                                                  DATE: 30-Oct-18          TIME: 14:05:27  
 **********************************************************************************************************************************

 SHA1:             2873118e99aab1bc19f5b6fc1784693c06d15c95
 **********************************************************************************************************************************

 THRESHOLDS:

 ZERO    =  1.00D-12  ONEINT  =  1.00D-12  TWOINT  =  1.00D-12  PREFAC  =  1.00D-14  LOCALI  =  1.00D-09  EORDER  =  1.00D-04
 ENERGY  =  0.00D+00  ETEST   =  0.00D+00  EDENS   =  0.00D+00  THRDEDEF=  1.00D-06  GRADIENT=  1.00D-02  STEP    =  1.00D-03
 ORBITAL =  1.00D-05  CIVEC   =  1.00D-05  COEFF   =  1.00D-04  PRINTCI =  5.00D-02  PUNCHCI =  9.90D+01  OPTGRAD =  3.00D-04
 OPTENERG=  1.00D-06  OPTSTEP =  3.00D-04  THRGRAD =  1.00D-10  COMPRESS=  1.00D-11  VARMIN  =  1.00D-07  VARMAX  =  1.00D-03
 THRDOUB =  0.00D+00  THRDIV  =  1.00D-05  THRRED  =  1.00D-07  THRPSP  =  1.00D+00  THRDC   =  1.00D-10  THRCS   =  1.00D-10
 THRNRM  =  1.00D-08  THREQ   =  0.00D+00  THRDE   =  1.00D+00  THRREF  =  1.00D-05  SPARFAC =  1.00D+00  THRDLP  =  1.00D-07
 THRDIA  =  1.00D-10  THRDLS  =  1.00D-07  THRGPS  =  0.00D+00  THRKEX  =  0.00D+00  THRDIS  =  2.00D-01  THRVAR  =  1.00D-10
 THRLOC  =  1.00D-06  THRGAP  =  1.00D-06  THRLOCT = -1.00D+00  THRGAPT = -1.00D+00  THRORB  =  1.00D-06  THRMLTP =  0.00D+00
 THRCPQCI=  1.00D-10  KEXTA   =  0.00D+00  THRCOARS=  0.00D+00  SYMTOL  =  1.00D-06  GRADTOL =  1.00D-06  THROVL  =  1.00D-08
 THRORTH =  1.00D-08  GRID    =  1.00D-06  GRIDMAX =  1.00D-03  DTMAX   =  0.00D+00  THROCCDE=  1.00D-01  THROCCDE=  1.00D-01



 ZUNIT=ANG
 

Geometry recognized as XYZ


 Variable memory set to 8000000000 words,  buffer space   230000 words

 SETTING BASIS          =    USERDEF


 Recomputing integrals since basis changed


 Using spherical harmonics



 PROGRAM * SEWARD (Integral evaluation for generally contracted gaussian basis sets)     Author: Roland Lindh, 1990

 Geometry written to block  1 of record 700

 Orientation using atomic masses  
 Molecule type: Atom
 Symmetry elements: X,Y,Z
 Rotational constants:       0.0000000      0.0000000      0.0000000 GHz  (calculated with average atomic masses)

 Point group  D2h 



 ATOMIC COORDINATES

 NR  ATOM    CHARGE       X              Y              Z

   1  AL      3.00    0.000000000    0.000000000    0.000000000


          AL  CORE POTENTIAL

          d POTENTIAL

 POWERS             1              3              2
 EXPONENTIALS   5.073893       8.607001       3.027490    
 COEFFICIENTS   3.000000       15.22168      -11.16568    

          s - d POTENTIAL

 POWERS             2              2
 EXPONENTIALS   7.863954       2.061358    
 COEFFICIENTS   14.87951       20.74686    

          p - d POTENTIAL

 POWERS             2              2
 EXPONENTIALS   3.125175       1.414930    
 COEFFICIENTS   7.786227       7.109015    


 BASIS DATA

   Nr Sym  Nuc  Type         Exponents   Contraction coefficients

    1.1 Ag    1  1s          57.235801    -0.000002
                             25.924172    -0.000006
                             11.741998     0.000395
                              5.318377    -0.003539
                              2.408886     0.040296
                              1.091072    -0.240905
                              0.494186    -0.050811
                              0.223835     0.400848
                              0.101383     0.564749
                              0.045920     0.214083
    2.1 Ag    1  1s           0.035747     1.000000
    3.1 Ag    1  1s           0.023040     1.000000
    4.1 Ag    1  3d0          0.356404     1.000000
    5.1 Ag    1  3d2+         0.356404     1.000000
    6.1 Ag    1  3d0          0.115816     1.000000
    7.1 Ag    1  3d2+         0.115816     1.000000
    1.2 B3u   1  2px          8.647956    -0.000159
                              4.468163    -0.000538
                              2.308578     0.006271
                              1.192780    -0.051237
                              0.616277     0.014611
                              0.318413     0.144648
                              0.164516     0.299819
                              0.085001     0.373586
                              0.043918     0.253917
                              0.022691     0.063644
    2.2 B3u   1  2px          0.215318     1.000000
    3.2 B3u   1  2px          0.201871     1.000000
    1.3 B2u   1  2py          8.647956    -0.000159
                              4.468163    -0.000538
                              2.308578     0.006271
                              1.192780    -0.051237
                              0.616277     0.014611
                              0.318413     0.144648
                              0.164516     0.299819
                              0.085001     0.373586
                              0.043918     0.253917
                              0.022691     0.063644
    2.3 B2u   1  2py          0.215318     1.000000
    3.3 B2u   1  2py          0.201871     1.000000
    1.4 B1g   1  3d2-         0.356404     1.000000
    2.4 B1g   1  3d2-         0.115816     1.000000
    1.5 B1u   1  2pz          8.647956    -0.000159
                              4.468163    -0.000538
                              2.308578     0.006271
                              1.192780    -0.051237
                              0.616277     0.014611
                              0.318413     0.144648
                              0.164516     0.299819
                              0.085001     0.373586
                              0.043918     0.253917
                              0.022691     0.063644
    2.5 B1u   1  2pz          0.215318     1.000000
    3.5 B1u   1  2pz          0.201871     1.000000
    1.6 B2g   1  3d1+         0.356404     1.000000
    2.6 B2g   1  3d1+         0.115816     1.000000
    1.7 B3g   1  3d1-         0.356404     1.000000
    2.7 B3g   1  3d1-         0.115816     1.000000

 NUCLEAR CHARGE:                    3
 NUMBER OF PRIMITIVE AOS:          60
 NUMBER OF SYMMETRY AOS:           58
 NUMBER OF CONTRACTIONS:           22   (   7Ag  +   3B3u +   3B2u +   2B1g +   3B1u +   2B2g +   2B3g +   0Au  )
 NUMBER OF CORE ORBITALS:           0   (   0Ag  +   0B3u +   0B2u +   0B1g +   0B1u +   0B2g +   0B3g +   0Au  )
 NUMBER OF VALENCE ORBITALS:        4   (   1Ag  +   1B3u +   1B2u +   0B1g +   1B1u +   0B2g +   0B3g +   0Au  )


 NUCLEAR REPULSION ENERGY    0.00000000

 EXTRA SYMMETRY OF AOS IN SYMMETRY 1:   1 1 1 2 3 2 3

 Eigenvalues of metric

         1 0.129E-01 0.302E+00 0.409E+00 0.409E+00 0.159E+01 0.159E+01 0.268E+01
         2 0.611E-03 0.187E+00 0.281E+01
         3 0.611E-03 0.187E+00 0.281E+01
         4 0.409E+00 0.159E+01
         5 0.611E-03 0.187E+00 0.281E+01
         6 0.409E+00 0.159E+01
         7 0.409E+00 0.159E+01


 Contracted 2-electron integrals neglected if value below      1.0D-12
 AO integral compression algorithm  1   Integral accuracy      1.0D-12

     0.262 MB (compressed) written to integral file (100.0%)


 NUMBER OF SORTED TWO-ELECTRON INTEGRALS:       5272.     BUFFER LENGTH:  32768
 NUMBER OF SEGMENTS:   1  SEGMENT LENGTH:       5272      RECORD LENGTH: 524288

 Memory used in sort:       0.56 MW

 SORT1 READ       12220. AND WROTE        4734. INTEGRALS IN      1 RECORDS. CPU TIME:     0.00 SEC, REAL TIME:     0.01 SEC
 SORT2 READ        4734. AND WROTE        5272. INTEGRALS IN      1 RECORDS. CPU TIME:     0.00 SEC, REAL TIME:     0.01 SEC

 FILE SIZES:   FILE 1:    19.3 MBYTE,  FILE 4:     4.2 MBYTE,   TOTAL:     23.6 MBYTE

 OPERATOR DM      FOR CENTER  0  COORDINATES:    0.000000    0.000000    0.000000
 OPERATOR EKIN    FOR CENTER  0  COORDINATES:    0.000000    0.000000    0.000000
 OPERATOR POT     FOR CENTER  0  COORDINATES:    0.000000    0.000000    0.000000


 **********************************************************************************************************************************
 DATASETS  * FILE   NREC   LENGTH (MB)   RECORD NAMES
              1      20       19.12       500      610      700      900      950      970     1000      129      960     1100   
                                          VAR    BASINP    GEOM    SYMINP    ZMAT    AOBASIS   BASIS     P2S    ABASIS      S 
                                         1400     1410     1420     1200     1210     1080     1600     1650     1300     1700   
                                         EKIN       V       ECP      H0       H01     AOSYM     SMH    MOLCAS    ERIS     OPER   

 PROGRAMS   *        TOTAL       INT
 CPU TIMES  *         2.12      1.97
 REAL TIME  *        13.58 SEC
 DISK USED  *        23.83 MB      
 **********************************************************************************************************************************


 PROGRAM * RHF-SCF (OPEN SHELL)       Authors: W. Meyer, H.-J. Werner


 NUMBER OF ELECTRONS:       2+    1-    SPACE SYMMETRY=2    SPIN SYMMETRY: Doublet 
 CONVERGENCE THRESHOLDS:    1.00E-05 (Density)    1.00E-07 (Energy)
 MAX. NUMBER OF ITERATIONS:       60
 INTERPOLATION TYPE:            DIIS
 INTERPOLATION STEPS:              2 (START)      1 (STEP)
 LEVEL SHIFTS:                 -0.60 (CLOSED) -0.30 (OPEN) 


 Singly occupied orbitals:      1.2

   Atom=AL basis=ECP10MWB_GUESS    lmin=0  lmax=1

 Orbital guess generated from atomic densities. Full valence occupancy:    1   1   1   0   1   0   0   0


 Molecular orbital dump at record        4202.2

 ITERATION    DDIFF          GRAD             ENERGY        2-EL.EN.            DIPOLE MOMENTS         DIIS   ORB.
    1      0.000D+00      0.000D+00        -1.87119301      1.714236    0.00000    0.00000    0.00000    0    start
    2      0.000D+00      0.645D-02        -1.87339112      1.739396    0.00000    0.00000    0.00000    1    diag,B
    3      0.173D+00      0.373D-02        -1.87468936      1.771208    0.00000    0.00000    0.00000    2    diag,B
    4      0.155D+00      0.927D-03        -1.87475237      1.776175    0.00000    0.00000    0.00000    3    diag,B
    5      0.266D-01      0.136D-03        -1.87475304      1.775735    0.00000    0.00000    0.00000    4    diag,B
    6      0.806D-03      0.683D-04        -1.87475326      1.775713    0.00000    0.00000    0.00000    5    diag,B
    7      0.770D-03      0.162D-04        -1.87475327      1.775656    0.00000    0.00000    0.00000    6    fixocc
    8      0.199D-03      0.278D-05        -1.87475327      1.775670    0.00000    0.00000    0.00000    7    diag,B
    9      0.161D-04      0.290D-06        -1.87475327      1.775671    0.00000    0.00000    0.00000    8    diag,B
   10      0.369D-05      0.371D-06        -1.87475327      1.775671    0.00000    0.00000    0.00000    0    orth

 Final alpha occupancy:   1   1   0   0   0   0   0
 Final beta  occupancy:   1   0   0   0   0   0   0

 !RHF STATE 1.2 Energy                 -1.874753266355
 Nuclear energy                         0.00000000
 One-electron energy                   -2.76258866
 Two-electron energy                    0.88783540
 Virial quotient                       -2.89492648
 !RHF STATE 1.2 Dipole moment           0.00000000     0.00000000     0.00000000
 Dipole moment /Debye                   0.00000000     0.00000000     0.00000000
 

 !RHF expec          <1.2|EKIN|1.2>     0.647599611999
 
 !RHF expec           <1.2|POT|1.2>    -1.258484681545

 ELECTRON ORBITALS
 =================


   Orb  Occ    Energy  Couls-En    Coefficients

                                   1 1s      1 1s      1 1s      1 3d0     1 3d2+    1 3d0     1 3d2+ 

   1.1   2    -0.3903   -1.4014  1.065004 -0.186719  0.128568  0.001228 -0.002126 -0.004423  0.007661

                                   1 2px     1 2px     1 2px  

   1.2   +    -0.2062   -0.9467  1.007311  0.109968 -0.115997

 HOMO      1.2    -0.206223 =      -5.6116eV
 LUMO      1.3     0.022048 =       0.6000eV
 LUMO-HOMO         0.228271 =       6.2116eV


 **********************************************************************************************************************************
 DATASETS  * FILE   NREC   LENGTH (MB)   RECORD NAMES
              1      20       19.12       500      610      700      900      950      970     1000      129      960     1100   
                                          VAR    BASINP    GEOM    SYMINP    ZMAT    AOBASIS   BASIS     P2S    ABASIS      S 
                                         1400     1410     1420     1200     1210     1080     1600     1650     1300     1700   
                                         EKIN       V       ECP      H0       H01     AOSYM     SMH    MOLCAS    ERIS     OPER   

              2       4        2.75       700     1000      520     4202   
                                         GEOM     BASIS   MCVARS     RHF  

 PROGRAMS   *        TOTAL       RHF       INT
 CPU TIMES  *         2.15      0.03      1.97
 REAL TIME  *        13.74 SEC
 DISK USED  *        23.83 MB      
 **********************************************************************************************************************************


 PROGRAM * MULTI (Direct Multiconfiguration SCF)       Authors: P.J. Knowles, H.-J. Werner (1984)     S.T. Elbert (1988)


 Number of closed-shell orbitals:   1 (   1   0   0   0   0   0   0   0 )
 Number of active  orbitals:        3 (   0   1   1   0   1   0   0   0 )
 Number of external orbitals:      18 (   6   2   2   2   2   2   2   0 )

 State symmetry 1

 Number of electrons:     1    Spin symmetry=Doublet   Space symmetry=2
 Number of states:        1
 Number of CSFs:          1   (1 determinants, 3 intermediate states)

 State symmetry 2

 Number of electrons:     1    Spin symmetry=Doublet   Space symmetry=3
 Number of states:        1
 Number of CSFs:          1   (1 determinants, 3 intermediate states)

 State symmetry 3

 Number of electrons:     1    Spin symmetry=Doublet   Space symmetry=5
 Number of states:        1
 Number of CSFs:          1   (1 determinants, 3 intermediate states)

 Molecular orbitals read from record     4202.2  Type=RHF/CANONICAL (state 1.2)
 *** IN SYMMETRY 1 ORBITAL  1 SYMMETRY CONTAMINATION OF 0.111D-01 HAS BEEN REMOVED

 EXTRA SYMMETRY OF MOS IN SYMMETRY 1:   1 1 3 2 1 2 3

 Wavefunction dump at record             5202.2

 Convergence thresholds  0.10E-01 (gradient)  0.10E-05 (energy)  0.10E-02 (step length)

 Weight factors for state symmetry  1:    0.33333
 Weight factors for state symmetry  2:    0.33333
 Weight factors for state symmetry  3:    0.33333

 Number of orbital rotations:       12   (     0 Core/Active      6 Core/Virtual   0 Active/Active      6 Active/Virtual)
 Total number of variables:         15


 ITER. MIC  NCI  NEG     ENERGY(VAR)     ENERGY(PROJ)   ENERGY CHANGE     GRAD(0)  GRAD(ORB)   GRAD(CI)     STEP       TIME

   1   16   12    0      -1.86855313      -1.87469303   -0.00613991    0.02514629 0.00000000 0.00000000  0.25D+00      0.01
   2   12   12    0      -1.87469093      -1.87469205   -0.00000112    0.00098932 0.00000000 0.00000000  0.13D-02      0.03
   3   13   12    0      -1.87469205      -1.87469205   -0.00000000    0.00000010 0.00000000 0.00000000  0.28D-06      0.03

 ** WVFN ****  CONVERGENCE REACHED, FINAL GRADIENT:  0.36D-14



 Results for state 1.2
 =====================

 !MCSCF STATE 1.2 Energy               -1.874692045085
 Nuclear energy                         0.00000000
 Kinetic energy                         0.64751454
 One electron energy                   -2.76263229
 Two electron energy                    0.88794025
 Virial ratio                           3.89521226

 !MCSCF STATE 1.2 Dipole moment         0.00000000     0.00000000     0.00000000
 Dipole moment /Debye                   0.00000000     0.00000000     0.00000000



 Results for state 1.3
 =====================

 !MCSCF STATE 1.3 Energy               -1.874692045085
 Nuclear energy                         0.00000000
 Kinetic energy                         0.64751454
 One electron energy                   -2.76263229
 Two electron energy                    0.88794025
 Virial ratio                           3.89521226

 !MCSCF STATE 1.3 Dipole moment         0.00000000     0.00000000     0.00000000
 Dipole moment /Debye                   0.00000000     0.00000000     0.00000000



 Results for state 1.5
 =====================

 !MCSCF STATE 1.5 Energy               -1.874692045085
 Nuclear energy                         0.00000000
 Kinetic energy                         0.64751454
 One electron energy                   -2.76263229
 Two electron energy                    0.88794025
 Virial ratio                           3.89521226

 !MCSCF STATE 1.5 Dipole moment         0.00000000     0.00000000     0.00000000
 Dipole moment /Debye                   0.00000000     0.00000000     0.00000000

 State-averaged charge density matrix saved on record  5202.2 (density set 1)

 !MCSCF expec        <1.2|EKIN|1.2>     0.647514542764
 !MCSCF expec        <1.3|EKIN|1.3>     0.647514542764
 !MCSCF expec        <1.5|EKIN|1.5>     0.647514542764

 !MCSCF expec         <1.2|POT|1.2>    -1.258481764065
 !MCSCF expec         <1.3|POT|1.3>    -1.258481764065
 !MCSCF expec         <1.5|POT|1.5>    -1.258481764065


 NATURAL ORBITALS (state averaged)
 =================================

   Orb     Occ        Energy       Coefficients

                                   1 1s      1 1s      1 1s      1 3d0     1 3d2+    1 3d0     1 3d2+ 

   1.1  2.00000    -0.390323     1.064882 -0.186384  0.128388  0.000000  0.000000  0.000000  0.000000

                                   1 2px     1 2px     1 2px  

   1.2  0.33333     0.004771     1.007476  0.111719 -0.117901

                                   1 2py     1 2py     1 2py  

   1.3  0.33333     0.004771     1.007476  0.111719 -0.117901

                                   1 2pz     1 2pz     1 2pz  

   1.5  0.33333     0.004771     1.007476  0.111719 -0.117901
 

 Natural orbital dump (state averaged) at molpro section  5202.2    (Orbital set 2)


 CI vector for state symmetry 1
 ==============================

 a 0 0           1.0000000

 TOTAL ENERGIES                        -1.87469205

 CI vector for state symmetry 2
 ==============================

 0 a 0           1.0000000

 TOTAL ENERGIES                        -1.87469205

 CI vector for state symmetry 3
 ==============================

 0 0 a           1.0000000

 TOTAL ENERGIES                        -1.87469205



 **********************************************************************************************************************************
 DATASETS  * FILE   NREC   LENGTH (MB)   RECORD NAMES
              1      21       19.13       500      610      700      900      950      970     1000      129      960     1100   
                                          VAR    BASINP    GEOM    SYMINP    ZMAT    AOBASIS   BASIS     P2S    ABASIS      S 
                                         1400     1410     1420     1200     1210     1080     1600     1650     1300     1700   
                                         EKIN       V       ECP      H0       H01     AOSYM     SMH    MOLCAS    ERIS     OPER   
                                         1380   
                                         JKOP   

              2       5        5.24       700     1000      520     4202     5202   
                                         GEOM     BASIS   MCVARS     RHF     MCSCF   

 PROGRAMS   *        TOTAL     MULTI       RHF       INT
 CPU TIMES  *         2.20      0.05      0.03      1.97
 REAL TIME  *        14.75 SEC
 DISK USED  *        33.51 MB      
 **********************************************************************************************************************************


 PROGRAM * RHF-SCF (OPEN SHELL)       Authors: W. Meyer, H.-J. Werner


 NUMBER OF ELECTRONS:       2+    1-    SPACE SYMMETRY=2    SPIN SYMMETRY: Doublet 
 CONVERGENCE THRESHOLDS:    1.00E-05 (Density)    1.00E-07 (Energy)
 MAX. NUMBER OF ITERATIONS:        0
 INTERPOLATION TYPE:            DIIS
 INTERPOLATION STEPS:              2 (START)      1 (STEP)
 LEVEL SHIFTS:                 -0.60 (CLOSED) -0.30 (OPEN) 


 Singly occupied orbitals:      1.2
 Molecular orbitals read from record     5202.2  Type=MCSCF/NATURAL (state averaged)

 Molecular orbital dump at record        2101.2

 ITERATION    DDIFF          GRAD             ENERGY        2-EL.EN.            DIPOLE MOMENTS         DIIS   ORB.
    1      0.000D+00      0.000D+00        -1.87469205      1.775880    0.00000    0.00000    0.00000    0    start

 Final alpha occupancy:   1   1   0   0   0   0   0
 Final beta  occupancy:   1   0   0   0   0   0   0

 !RHF STATE 1.2 Energy                 -1.874692045085
 Nuclear energy                         0.00000000
 One-electron energy                   -2.76263229
 Two-electron energy                    0.88794025
 Virial quotient                       -2.89521226
 !RHF STATE 1.2 Dipole moment           0.00000000     0.00000000     0.00000000
 Dipole moment /Debye                   0.00000000     0.00000000     0.00000000
 

 !RHF expec          <1.2|EKIN|1.2>     0.647514542764
 
 !RHF expec           <1.2|POT|1.2>    -1.258481764065

 ELECTRON ORBITALS
 =================


   Orb  Occ    Energy  Couls-En    Coefficients

                                   1 1s      1 1s      1 1s      1 3d0     1 3d2+    1 3d0     1 3d2+ 

   1.1   2    -0.3903   -1.4014  1.064882 -0.186384  0.128388  0.000000  0.000000  0.000000  0.000000

                                   1 2px     1 2px     1 2px  

   1.2   +     0.0048   -0.7357  1.007476  0.111719 -0.117901

 HOMO      1.2     0.004771 =       0.1298eV
 LUMO      1.3     0.004771 =       0.1298eV
 LUMO-HOMO        -0.000000 =      -0.0000eV


 **********************************************************************************************************************************
 DATASETS  * FILE   NREC   LENGTH (MB)   RECORD NAMES
              1      21       19.13       500      610      700      900      950      970     1000      129      960     1100   
                                          VAR    BASINP    GEOM    SYMINP    ZMAT    AOBASIS   BASIS     P2S    ABASIS      S 
                                         1400     1410     1420     1200     1210     1080     1600     1650     1300     1700   
                                         EKIN       V       ECP      H0       H01     AOSYM     SMH    MOLCAS    ERIS     OPER   
                                         1380   
                                         JKOP   

              2       6        7.74       700     1000      520     4202     5202     2101   
                                         GEOM     BASIS   MCVARS     RHF     MCSCF     RHF  

 PROGRAMS   *        TOTAL       RHF     MULTI       RHF       INT
 CPU TIMES  *         2.21      0.00      0.05      0.03      1.97
 REAL TIME  *        14.87 SEC
 DISK USED  *        33.51 MB      
 **********************************************************************************************************************************
 SETTING SCF(I)         =        -1.87469205  AU                              
 SETTING _CC_NORM_MAX   =         2.00000000                                  


 PROGRAM * UHF-SCF       Authors: W. Meyer, H.-J. Werner


 NUMBER OF ELECTRONS:       2+    1-    SPACE SYMMETRY=2    SPIN SYMMETRY: Doublet 
 CONVERGENCE THRESHOLDS:    1.00E-05 (Density)    1.00E-07 (Energy)
 MAX. NUMBER OF ITERATIONS:        0
 INTERPOLATION TYPE:            DIIS
 INTERPOLATION STEPS:              2 (START)      1 (STEP)
 LEVEL SHIFTS:                  0.20 (ALPHA)   0.20 (BETA) 



 Molecular orbitals read from record     2101.2  Type=RHF/CANONICAL (state 1.2)

 Molecular orbital dump at record        2200.2

 Initial alpha occupation   1   1   0   0   0   0   0
 Initial beta  occupation   1   0   0   0   0   0   0

 ITERATION    DDIFF          GRAD             ENERGY        2-EL.EN.            DIPOLE MOMENTS         DIIS
    1      0.000D+00      0.000D+00        -1.87469205      1.775880    0.00000    0.00000    0.00000    0
 
 Final alpha occupancy:   1   1   0   0   0   0   0
 Final beta  occupancy:   1   0   0   0   0   0   0

 !UHF STATE 1.2 Energy                 -1.874692045085
 Nuclear energy                         0.00000000
 One-electron energy                   -2.76263229
 Two-electron energy                    0.88794025
 Virial quotient                       -2.89521226
 !UHF STATE 1.2 Dipole moment           0.00000000     0.00000000     0.00000000
 Dipole moment /Debye                   0.00000000     0.00000000     0.00000000
 

 !UHF expec          <1.2|EKIN|1.2>     0.647514542764
 
 !UHF expec           <1.2|POT|1.2>    -1.258481764065

 ELECTRON ORBITALS FOR POSITIVE SPIN
 ===================================


   Orb  Occ    Energy  Couls-En    Coefficients

                                   1 1s      1 1s      1 1s      1 3d0     1 3d2+    1 3d0     1 3d2+ 

   1.1   +    -0.3903   -1.4014  1.064882 -0.186384  0.128388  0.000000  0.000000  0.000000  0.000000

                                   1 2px     1 2px     1 2px  

   1.2   +     0.0048   -0.7357  1.007476  0.111719 -0.117901

 ELECTRON ORBITALS FOR NEGATIVE SPIN
 ===================================


   Orb  Occ    Energy  Couls-En    Coefficients

                                   1 1s      1 1s      1 1s      1 3d0     1 3d2+    1 3d0     1 3d2+ 

   1.1   -    -0.3903   -1.4014  1.064882 -0.186384  0.128388  0.000000  0.000000  0.000000  0.000000

 HOMO      1.2     0.004771 =       0.1298eV
 LUMO      1.3     0.004771 =       0.1298eV
 LUMO-HOMO        -0.000000 =      -0.0000eV

 EXPECTATION VALUE OF S**2:             0.75000000

 Occupation number threshold for canonical orbitals:  1.999000 (occupied),  0.001000 (virtual)

 Number of pseudo-canonical orbitals per symmetry:    1   0   0   0   0   0   0
 Number of active natural orbitals per symmetry:      0   1   0   0   0   0   0

 NATURAL CHARGE ORBITALS
 =======================


   Orb     Occ        Energy       Coefficients

                                   1 1s      1 1s      1 1s      1 3d0     1 3d2+    1 3d0     1 3d2+ 

   1.1  2.00000    -0.390323     1.064882 -0.186384  0.128388  0.000000  0.000000  0.000000  0.000000

                                   1 2px     1 2px     1 2px  

   1.2  1.00000    -0.063462     1.007476  0.111719 -0.117901

 Natural orbitals saved to record    2200.2 (Orbital set 3)

 Orbital spaces for UNO-CAS (Min. occupation: 0.020  Max. occupation: 1.980):

 Closed:        1   0   0   0   0   0   0
 Active:        0   1   0   0   0   0   0

 No convergence



 **********************************************************************************************************************************
 DATASETS  * FILE   NREC   LENGTH (MB)   RECORD NAMES
              1      21       19.13       500      610      700      900      950      970     1000      129      960     1100   
                                          VAR    BASINP    GEOM    SYMINP    ZMAT    AOBASIS   BASIS     P2S    ABASIS      S 
                                         1400     1410     1420     1200     1210     1080     1600     1650     1300     1700   
                                         EKIN       V       ECP      H0       H01     AOSYM     SMH    MOLCAS    ERIS     OPER   
                                         1380   
                                         JKOP   

              2       7       10.24       700     1000      520     4202     5202     2101     2200   
                                         GEOM     BASIS   MCVARS     RHF     MCSCF     RHF      UHF  

 PROGRAMS   *        TOTAL       UHF       RHF     MULTI       RHF       INT
 CPU TIMES  *         2.23      0.01      0.00      0.05      0.03      1.97
 REAL TIME  *        15.07 SEC
 DISK USED  *        33.51 MB      
 **********************************************************************************************************************************
 SETTING SCF(I)         =        -1.87469205  AU                              


 PROGRAM * MRCC (General Multireference Coupled Cluster)    Author: M. Kallay, 2000-2005

 ***  Initialisation ***

   0 Spin projections
 
 Molecular orbitals read from record     2200.2  Type=UHF/ALPHA (state 1.2)

 ?Warning: UHF not converged
 Molecular orbitals read from record     2200.2  Type=UHF/BETA (state 1.2)

 ?Warning: UHF not converged
 
 Frozen orbitals:              0 (  0  0  0  0  0  0  0  0)
 Active orbitals:             22 (  7  3  3  2  3  2  2  0)
 Active electrons:             3
 Spin quantum number:          0.5

 Transformed integrals will be written to file mrcc_25891/fort.55

 Load integrals                2.3 sec
 Transform integrals           2.3 sec
 Storage for integrals:          28961
 Remaining memory:           *********

 Core energy:               0.00000000
 
 MRCC Input:
     4     0     0     0     3     0     0     2     0     0     0     1     1     0     0     7     0     0   0.000     0   64000
  ex.lev,nsing,ntrip, rest,method,dens,conver,symm, diag, CS ,spatial, HF, ndoub,nacto,nactv, tol, maxex, sacc, freq,  dboc,   mem
  2  0  0  0  0  0  0  1  0  0  0  0  0  0  0  0  0  0  0  0  0  0
 MRCC Input end
 Variable memory released
 MRCC now being run, temporary output in /global/cscratch1/sd/aannabe/mrcc_25891/mrcc.out
 **********************************************************************
                          MRCC program system
 **********************************************************************

                              Written by
  Mihaly Kallay, Zoltan Rolik, Jozsef Csontos, Peter Nagy, Gyula Samu,
      David Mester, Jozsef Csoka, Bernat Szabo, Istvan Ladjanszki,
       Lorant Szegedy, Bence Ladoczki, Klara Petrov, Mate Farkas,
                    Pal D. Mezei, and Bence Hegely

        Department of Physical Chemistry and Materials Science
            Budapest University of Technology and Economics
                  Budapest P.O.Box 91, H-1521 Hungary

                              www.mrcc.hu

                       Release date: May 23, 2018

 ************************ 2018-10-30 14:05:44 *************************
 Executing goldstone...

 Generation of CC equations in terms of H and T...
 Generation of antisymmetrized Goldstone diagrams...
 Number of diagrams in T^1 equations:    15
 Number of diagrams in T^2 equations:    33
 Number of diagrams in T^3 equations:     2
 Translation of diagrams to factorized equations...
 Optimizing intermediate calculation...
 Number of floating-point operations per iteration step:   2.2632E+05
 Probable CPU time per iteration step (hours):      0.00
 Required memory (Mbytes):      23.4
 Number of intermediates:                                  48
 Number of intermediates to be stored:                     20
 Length of intermediate file (Mbytes):       0.4

 ************************ 2018-10-30 14:05:45 *************************
 Executing xmrcc...

 **********************************************************************
 CC(2)(3) calculation


 Allocation of 100.0 Mbytes of memory...
 Number of spinorbitals:                    44
 Number of alpha electrons:                        2
 Number of beta electrons:                         1
 Spin multiplicity:                     2
 z-component of spin:  0.5
 Spatial symmetry:                      2
 Convergence criterion:  1.0E-07
 Construction of occupation graphs...
 Number of                     0 -fold excitations:                      1
 Number of                     1 -fold excitations:                     14
 Number of                     2 -fold excitations:                    150
 Total number of configurations:                    165
 Calculation of coupling coefficients...
 Length of intermediate file (Mbytes):       0.5

 ======================================================================

 Spin case  1   Alpha:  2   Beta:  1
 Number of excitations:                    495
 Number of                     3 -fold excitations:                    495

 Memory requirements /Mbyte/:
               Minimal        Optimal
 Real*8:          6.0030         6.0030
 Integer:         3.4079
 Total:           9.4109         9.4109


 ************************ 2018-10-30 14:05:46 *************************
 Executing mrcc...

 **********************************************************************
 CCSDT(T) calculation


 Allocation of    6.0 Mbytes of memory...
 Number of spinorbitals:  44
 Number of alpha electrons:  2
 Number of beta  electrons:  1
 Spin multiplicity: 2
 z-component of spin:  0.5
 Spatial symmetry: 2
 Convergence criterion:  1.0E-07
 Construction of occupation graphs...
 Number of 0-fold excitations: 1
 Number of 1-fold excitations: 14
 Number of 2-fold excitations: 150
 Total number of determinants: 165
 Calculation of coupling coefficients...
 Initial cluster amplitudes are generated.
 Length of intermediate file (Mbytes):       0.5
 Reading integral list from unit 55...
 Sorting integrals...
 Sorting integrals...
 Sorting integrals...
 Sorting integrals...
 Energy of reference determinant [au]:      -1.874692045085
 Calculation of MP denominators...

 Starting CC iteration...
 ======================================================================
 Norm of residual vector:     0.21731098
 CPU time [min]:     0.003                   Wall time [min]:     0.005

 Iteration  1  CC energy:    -1.91347100  Energy decrease:   0.03877895
 ======================================================================
 Norm of residual vector:     0.05923371
 CPU time [min]:     0.004                   Wall time [min]:     0.006

 Iteration  2  CC energy:    -1.92683980  Energy decrease:   0.01336880
 ======================================================================
 Norm of residual vector:     0.01532644
 CPU time [min]:     0.005                   Wall time [min]:     0.006

 Iteration  3  CC energy:    -1.92797987  Energy decrease:   0.00114007
 ======================================================================
 Norm of residual vector:     0.00427079
 CPU time [min]:     0.005                   Wall time [min]:     0.007

 Iteration  4  CC energy:    -1.92857357  Energy decrease:   0.00059370
 ======================================================================
 Norm of residual vector:     0.00086879
 CPU time [min]:     0.006                   Wall time [min]:     0.007

 Iteration  5  CC energy:    -1.92846286  Energy decrease:   0.00011071
 ======================================================================
 Norm of residual vector:     0.00016821
 CPU time [min]:     0.006                   Wall time [min]:     0.008

 Iteration  6  CC energy:    -1.92849904  Energy decrease:   0.00003618
 ======================================================================
 Norm of residual vector:     0.00003858
 CPU time [min]:     0.007                   Wall time [min]:     0.008

 Iteration  7  CC energy:    -1.92848955  Energy decrease:   0.00000949
 ======================================================================
 Norm of residual vector:     0.00001146
 CPU time [min]:     0.007                   Wall time [min]:     0.009

 Iteration  8  CC energy:    -1.92849242  Energy decrease:   0.00000287
 ======================================================================
 Norm of residual vector:     0.00000330
 CPU time [min]:     0.008                   Wall time [min]:     0.009

 Iteration  9  CC energy:    -1.92849170  Energy decrease:   0.00000072
 ======================================================================
 Norm of residual vector:     0.00000043
 CPU time [min]:     0.008                   Wall time [min]:     0.010

 Iteration 10  CC energy:    -1.92849172  Energy decrease:   0.00000002
 ======================================================================
 Norm of residual vector:     0.00000010
 CPU time [min]:     0.009                   Wall time [min]:     0.011

 Iteration 11  CC energy:    -1.92849174  Energy decrease:   0.00000002
 ======================================================================
 Norm of residual vector:     0.00000003
 CPU time [min]:     0.009                   Wall time [min]:     0.011

 Iteration 12  CC energy:    -1.92849173  Energy decrease:   0.00000001
 ======================================================================

 Iteration has converged in 12 steps.

 Final results:
 Total CCSDT energy [au]:             -1.928491733228
 Total MP2 energy [au]:               -1.913470995144

 Perturbative corrections are calculated...
 ======================================================================
 Spin case  1   Alpha:  2   Beta:  1
 Number of excitations:        495
 CPU time [min]:     0.010                   Wall time [min]:     0.011
 ======================================================================
 Number of 3-fold excitations: 495
 CPU time [min]:     0.010                   Wall time [min]:     0.011

 Total CCSD[T] energy [au]:           -1.929486684333
 Total CCSD(T) energy [au]:           -1.929515286184

 ************************ 2018-10-30 14:05:48 *************************
                      Normal termination of mrcc.
 **********************************************************************
 !CCSDT STATE 1.2 Energy               -1.928491733228
 !MP2 STATE 1.2 Energy                 -1.913470995144
 !CCSD[T] STATE 1.2 Energy             -1.929486684333
 !CCSD(T) STATE 1.2 Energy             -1.929515286184
 
 CPU-time for MRCC:              0.6 sec
 Elapsed-time for MRCC:          6.0 sec

 Variable memory set to 8000000000 words,  buffer space   230000 words



 **********************************************************************************************************************************
 DATASETS  * FILE   NREC   LENGTH (MB)   RECORD NAMES
              1      21       19.13       500      610      700      900      950      970     1000      129      960     1100   
                                          VAR    BASINP    GEOM    SYMINP    ZMAT    AOBASIS   BASIS     P2S    ABASIS      S 
                                         1400     1410     1420     1200     1210     1080     1600     1650     1300     1700   
                                         EKIN       V       ECP      H0       H01     AOSYM     SMH    MOLCAS    ERIS     OPER   
                                         1380   
                                         JKOP   

              2       7       10.24       700     1000      520     4202     5202     2101     2200   
                                         GEOM     BASIS   MCVARS     RHF     MCSCF     RHF      UHF  

 PROGRAMS   *        TOTAL      MRCC       UHF       RHF     MULTI       RHF       INT
 CPU TIMES  *         2.91      0.66      0.01      0.00      0.05      0.03      1.97
 REAL TIME  *        21.59 SEC
 DISK USED  *        33.51 MB      
 **********************************************************************************************************************************
 SETTING POSTHF(I)      =        -1.92951529  AU                              
                                                                                                                                                                                                                                                                

       SCF           POSTHF       EKIN          POT
    -1.87469205   -1.92951529   0.64751454   -1.25848176
                                                  

 CCSD(T)/USERDEF energy=     -1.929515286184

        CCSD(T)         RHF-SCF         MULTI           RHF-SCF 
     -1.92951529     -1.87469205     -1.87469205     -1.87475327
 **********************************************************************************************************************************
 Variable memory released
