TACC:  Starting up job 2880485 
TACC:  Starting parallel tasks... 
  Input file(s): Ne.log.qmc.in-wfj.xml 

=====================================================
                    QMCPACK 3.6.0

       (c) Copyright 2003-  QMCPACK developers

                    Please cite:
 J. Kim et al. J. Phys. Cond. Mat. 30 195901 (2018)
      https://doi.org/10.1088/1361-648X/aab9c3

  Git branch: develop
  Last git commit: 8025d469c3748fa6a35dc38bfa5b192a28e9e66e
  Last git commit date: Mon Jan 14 15:08:34 2019 -0600
  Last git commit subject: Merge pull request #1314 from prckent/update_citations
=====================================================
  Global options 

  MPI Nodes             = 1024
  MPI Nodes per group   = 1024
  MPI Group ID          = 0
  OMP 1st level threads = 1
  OMP nested threading disabled or only 1 thread on the 2nd level

  Precision used in this calculation, see definitions in the manual:
  Base precision      = double
  Full precision      = double

  Structure-of-arrays (SoA) optimization enabled

  Input XML = Ne.log.qmc.in-wfj.xml

  Project = Ne.log
  date    = 2019-02-06 13:11:17 CST
  host    = c455-011.stampede2.tacc.utexas.edu

 Random Number
 -------------
  Offset for the random number seeds based on time: 341

  Range of prime numbers to use as seeds over processors and threads = 2309-11311


 Particle Set 
 ------------
  Name: ion0
  All the species have the same mass 1
  Particle set size: 1

 Particle Set 
 ------------
  Name: e
  All the species have the same mass 1
  Particle set size: 8

 Wavefunction setup: 
 ------------------- 
  Name: psi0
  LCAO: SoaAtomicBasisSet<MultiQuintic,0>

  Distance table for similar particles (A-A):
    source/target: e
    Using structure-of-arrays (SoA) data layout
    Distance computations use open boundary conditions in 3D.


  Distance table for dissimilar particles (A-B):
    source: ion0  target: e
    Using structure-of-arrays (SoA) data layout
    Distance computations use open boundary conditions in 3D.

Reading BasisSet from HDF5 file:Ne.log.orbs.h5
<input node="atomicBasisSet" name="Gaussian" expandYlm="Gamess" angular="cartesian" elementType="Ne" normalized="no" type="Numerical" expM="0" />
  AO BasisSet for Ne
   Angular momentum expanded in cartesian functions x^lx y^ly z^lz according to Gamess
   Grid is created by the input paremters in h5
    Using log grid ri = 1e-06 rf = 100 npts = 1001
   R(n,l,m,s) 0 0 0 0
   R(n,l,m,s) 1 1 0 0
   R(n,l,m,s) 2 0 0 0
   R(n,l,m,s) 3 0 0 0
   R(n,l,m,s) 4 1 0 0
   R(n,l,m,s) 5 1 0 0
   R(n,l,m,s) 6 2 0 0
   R(n,l,m,s) 7 2 0 0
   R(n,l,m,s) 8 3 0 0
Expanding Ylm (angular function) according to Gamess using cartesian gaussians
Adding 1 cartesian gaussian orbitals for l= 0
Adding 3 cartesian gaussian orbitals for l= 1
Adding 1 cartesian gaussian orbitals for l= 0
Adding 1 cartesian gaussian orbitals for l= 0
Adding 3 cartesian gaussian orbitals for l= 1
Adding 3 cartesian gaussian orbitals for l= 1
Adding 6 cartesian gaussian orbitals for l= 2
Adding 6 cartesian gaussian orbitals for l= 2
Adding 10 cartesian gaussian orbitals for l= 3
   Maximum Angular Momentum  = 3
   Number of Radial functors = 9
   Basis size                = 34

  Created SPOSet builder named 'LCAOBSet' of type molecularorbital
Reuse SPOSetBuilder "LCAOBSet" type MolecularOrbital
  Building SPOSet '' with '' basis set.
Reuse SPOSetBuilder "LCAOBSet" type MolecularOrbital
  Building SPOSet '' with '' basis set.
  Creating a determinant updet group=0 sposet=updet
  Reusing a SPO set updet
Using DiracDeterminant
Using rank-1 Sherman-Morrison Fahy update

  Creating a determinant downdet group=1 sposet=downdet
  Reusing a SPO set downdet
Using DiracDeterminant
Using rank-1 Sherman-Morrison Fahy update

  FermionWF = SlaterDet
  RadialJastrowBuilder adds a functor with cusp = -0.25
 size = 10 parameters 
 cusp = -0.25
 rcut = 4
Parameter     Name      Value
uu_0 0 1 1  ON 0
uu_1 0 1 1  ON 1
uu_2 0 1 1  ON 2
uu_3 0 1 1  ON 3
uu_4 0 1 1  ON 4
uu_5 0 1 1  ON 5
uu_6 0 1 1  ON 6
uu_7 0 1 1  ON 7
uu_8 0 1 1  ON 8
uu_9 0 1 1  ON 9
  RadialJastrowBuilder adds a functor with cusp = -0.5
 size = 10 parameters 
 cusp = -0.5
 rcut = 4
Parameter     Name      Value
ud_0 0 1 1  ON 0
ud_1 0 1 1  ON 1
ud_2 0 1 1  ON 2
ud_3 0 1 1  ON 3
ud_4 0 1 1  ON 4
ud_5 0 1 1  ON 5
ud_6 0 1 1  ON 6
ud_7 0 1 1  ON 7
ud_8 0 1 1  ON 8
ud_9 0 1 1  ON 9
 size = 10 parameters 
 cusp = 0
 rcut = 4
Parameter     Name      Value
eNe_0 0 1 1  ON 0
eNe_1 0 1 1  ON 1
eNe_2 0 1 1  ON 2
eNe_3 0 1 1  ON 3
eNe_4 0 1 1  ON 4
eNe_5 0 1 1  ON 5
eNe_6 0 1 1  ON 6
eNe_7 0 1 1  ON 7
eNe_8 0 1 1  ON 8
eNe_9 0 1 1  ON 9
Expected 26 parameters, but found 0 in PolynomialFunctor3D.
Expected 26 parameters, but found 0 in PolynomialFunctor3D.
  QMCHamiltonian::addOperator Kinetic to H, physical Hamiltonian 
  QMCHamiltonian::addOperator ElecElec to H, physical Hamiltonian 
QMCHamiltonian::addOperatorType added type coulomb named ElecElec
  CoulombAA for ion0 is not created.  Number of particles == 1 and nonPeriodic

  ECPotential builder for pseudopotential 

  Adding pseudopotential for Ne
   Linear grid  ri=0 rf=10 npts = 10001
    ECPComponentBuilder::buildSemiLocalAndLocal 
    Assuming Hartree unit
   Number of angular momentum channels 2
   Maximum angular momentum channel 1
   Creating a Linear Grid Rmax=0.975
  Using global grid with delta = 0.001
   Making L=1 a local potential with a radial cutoff of 9.999
    Non-local pseudopotential parameters
    Maximum angular mementum = 0
    Number of non-local channels = 1
       l(0)=0
    Cutoff radius = 0.975
    Spherical grids and weights: 
                        1                 0                 0       0.08333333333
                       -1   1.224646799e-16                 0       0.08333333333
             0.4472135955       0.894427191                 0       0.08333333333
            -0.4472135955      0.7236067977      0.5257311121       0.08333333333
             0.4472135955      0.2763932023      0.8506508084       0.08333333333
            -0.4472135955     -0.2763932023      0.8506508084       0.08333333333
             0.4472135955     -0.7236067977      0.5257311121       0.08333333333
            -0.4472135955      -0.894427191   1.095357397e-16       0.08333333333
             0.4472135955     -0.7236067977     -0.5257311121       0.08333333333
            -0.4472135955     -0.2763932023     -0.8506508084       0.08333333333
             0.4472135955      0.2763932023     -0.8506508084       0.08333333333
            -0.4472135955      0.7236067977     -0.5257311121       0.08333333333
    Maximum cutoff radius 0.975
  QMCHamiltonian::addOperator LocalECP to H, physical Hamiltonian 

  Using NonLocalECP potential 
    Maximum grid on a sphere for NonLocalECPotential: 12
  QMCHamiltonian::addOperator NonLocalECP to H, physical Hamiltonian 
QMCHamiltonian::addOperatorType added type pseudo named PseudoPot

  QMCHamiltonian::add2WalkerProperty added
    4 to P::PropertyList 
    0 to P::Collectables 
    starting Index of the observables in P::PropertyList = 9
ParticleSetPool::randomize 
<init source="ion0" target="e">
</init>
  Initialization Execution time = 0.6323 secs
=========================================================
 Summary of QMC systems 
=========================================================
ParticleSetPool has: 

  ParticleSet e : 0 4 8 

    8

    u -3.0859012060e-01 -3.1046600788e-01 -2.6578285682e+00
    u  1.4637095797e-01 -1.6434710157e-01 -2.4871856407e+00
    u -5.8631209149e-01 -3.2615885682e-01  7.9849750261e-01
    u -1.8901263829e-01 -4.2439380024e-01  1.2344841355e+00
    d -2.8751716521e-01 -7.5400067182e-01 -1.0509168138e+00
    d  1.7204310637e-01  1.7903360078e-01 -1.4576115773e+00
    d -8.6873217917e-01  2.0903011493e+00  6.8498836925e-01
    d -9.6748147004e-01  8.8558222850e-01 -1.4556614655e+00

  ParticleSet ion0 : 0 1 

    1

    Ne  0.0000000000e+00  0.0000000000e+00  0.0000000000e+00

  Hamiltonian h0
  Kinetic         Kinetic energy
  ElecElec        CoulombAA source/target e

  LocalECP        LocalECPotential: ion0
  NonLocalECP     NonLocalECPotential: ion0

=========================================================
  Start VMC
  File Root Ne.log.s000 append = no 
=========================================================
  Adding 1 walkers to 0 existing sets
  Total number of walkers: 1.0240000000e+03
  Total weight: 1.0240000000e+03
  Resetting Properties of the walkers 1 x 13

<vmc function="put">
  qmc_counter=0  my_counter=0
  time step      = 1.5000000000e-01
  blocks         = 200
  steps          = 1
  substeps       = 5
  current        = 0
  target samples = 1.0240000000e+03
  walkers/mpi    = 1

  stepsbetweensamples = 200
<parameter name="blocks" condition="int">200</parameter>
<parameter name="blocks_between_recompute" condition="int">0</parameter>
<parameter name="check_properties" condition="int">100</parameter>
<parameter name="checkproperties" condition="int">100</parameter>
<parameter name="current" condition="int">0</parameter>
<parameter name="dmcwalkersperthread" condition="real">1.0000000000e+00</parameter>
<parameter name="maxcpusecs" condition="real">3.6000000000e+05</parameter>
<parameter name="record_configs" condition="int">0</parameter>
<parameter name="record_walkers" condition="int">200</parameter>
<parameter name="recordconfigs" condition="int">0</parameter>
<parameter name="recordwalkers" condition="int">200</parameter>
<parameter name="rewind" condition="int">0</parameter>
<parameter name="samples" condition="real">1.0240000000e+03</parameter>
<parameter name="samplesperthread" condition="real">1.0000000000e+00</parameter>
<parameter name="steps" condition="int">1</parameter>
<parameter name="stepsbetweensamples" condition="int">200</parameter>
<parameter name="store_configs" condition="int">0</parameter>
<parameter name="storeconfigs" condition="int">0</parameter>
<parameter name="sub_steps" condition="int">5</parameter>
<parameter name="substeps" condition="int">5</parameter>
<parameter name="tau" condition="au">1.5000000000e-01</parameter>
<parameter name="time_step" condition="au">1.5000000000e-01</parameter>
<parameter name="timestep" condition="au">1.5000000000e-01</parameter>
<parameter name="use_drift" condition="string">no</parameter>
<parameter name="usedrift" condition="string">no</parameter>
<parameter name="walkers" condition="int">1</parameter>
<parameter name="warmup_steps" condition="int">100</parameter>
<parameter name="warmupsteps" condition="int">100</parameter>
  DumpConfig==false Nothing (configurations, state) will be saved.
  Walker Samples are dumped every 200 steps.
</vmc>
  Initial partition of walkers 0 1 

  Using Particle by Particle moves
  Walker moves without drift
  Total Sample Size   =1024
  Walker distribution on root = 0 1 
  Using Locality Approximation
===== Memory Usage after the buffer registration =====
Available memory on node 0, free + buffers : 82444 MB
Memory footprint by rank 0 on node 0       : 72 MB
==================================================
  Anonymous Buffer size per walker : 2912 Bytes.
MEMORY increase 0 MB VMC::resetRun
====================================================
  SimpleFixedNodeBranch::finalize after a VMC block
    QMC counter        = 0
    time step          = 0.15
    reference energy   = -34.695
    reference variance = 4.52082
====================================================
  QMC Execution time = 8.8958e-01 secs
Loop execution max-interations = 5

=========================================================
  Start QMCFixedSampleLinearOptimize
  File Root Ne.log.s001 append = no 
=========================================================
  Skip QMCDriver::putQMCInfo 
  Resetting Properties of the walkers 1 x 13

=========================================================
  Start VMC
  File Root Ne.log.s001 append = no 
=========================================================
  Using the current 1 walkers.
  Total number of walkers: 1.0240e+03
  Total weight: 1.0240e+03
  Resetting Properties of the walkers 1 x 13

<vmc function="put">
  qmc_counter=0  my_counter=0
  time step      = 1.5000e-01
  blocks         = 200
  steps          = 2
  substeps       = 5
  current        = 0
  target samples = 2.5600e+05
  walkers/mpi    = 1

  stepsbetweensamples = 1
<parameter name="blocks" condition="int">200</parameter>
<parameter name="blocks_between_recompute" condition="int">0</parameter>
<parameter name="check_properties" condition="int">100</parameter>
<parameter name="checkproperties" condition="int">100</parameter>
<parameter name="current" condition="int">0</parameter>
<parameter name="dmcwalkersperthread" condition="real">2.5000e+02</parameter>
<parameter name="maxcpusecs" condition="real">3.6000e+05</parameter>
<parameter name="record_configs" condition="int">0</parameter>
<parameter name="record_walkers" condition="int">1</parameter>
<parameter name="recordconfigs" condition="int">0</parameter>
<parameter name="recordwalkers" condition="int">1</parameter>
<parameter name="rewind" condition="int">0</parameter>
<parameter name="samples" condition="real">2.5600e+05</parameter>
<parameter name="samplesperthread" condition="real">2.5000e+02</parameter>
<parameter name="steps" condition="int">2</parameter>
<parameter name="stepsbetweensamples" condition="int">1</parameter>
<parameter name="store_configs" condition="int">0</parameter>
<parameter name="storeconfigs" condition="int">0</parameter>
<parameter name="sub_steps" condition="int">5</parameter>
<parameter name="substeps" condition="int">5</parameter>
<parameter name="tau" condition="au">1.5000e-01</parameter>
<parameter name="time_step" condition="au">1.5000e-01</parameter>
<parameter name="timestep" condition="au">1.5000e-01</parameter>
<parameter name="use_drift" condition="string">no</parameter>
<parameter name="usedrift" condition="string">no</parameter>
<parameter name="walkers" condition="int">1</parameter>
<parameter name="warmup_steps" condition="int">0</parameter>
<parameter name="warmupsteps" condition="int">0</parameter>
  DumpConfig==false Nothing (configurations, state) will be saved.
  Walker Samples are dumped every 1 steps.
</vmc>
    Restarting, cummulative properties:
      energy     = -3.4695e+01
      variance   = 0.0000e+00
      r2accepted = 1.0000e-10
      r2proposed = 1.0000e-10
 Using QMCCostFunction::QMCCostFunction
  EstimatorManagerBase::add replace LocalEnergy estimator.
<optimization-report>
<vmc stage="main" blocks="200">
  Cannot make clones again. Use existing 1 clones
  Initial partition of walkers 0 1 

  Using Particle by Particle moves
  Walker moves without drift
  Total Sample Size   =256000
  Walker distribution on root = 0 1 
  Using Locality Approximation
===== Memory Usage after the buffer registration =====
Available memory on node 0, free + buffers : 82407 MB
Memory footprint by rank 0 on node 0       : 73 MB
==================================================
  Anonymous Buffer size per walker : 2912 Bytes.
MEMORY increase 0 MB VMC::resetRun
====================================================
  SimpleFixedNodeBranch::finalize after a VMC block
    QMC counter        = 1
    time step          = 0.15
    reference energy   = -34.7711
    reference variance = 4.43074
====================================================
  Execution time = 1.1380e+00
</vmc>
<opt stage="setup">
  <log>
   Reading configurations from h5FileRoot Ne.log.s001
  QMCCostFunction is created with 1 threads.
  Using Nonlocal PP in Opt: NonLocalECP
   Number of samples loaded to each thread : 250 
  VMC Eavg = -3.4728e+01
  VMC Evar = 4.5033e+00
  Total weights = 2.5600e+05
  Execution time = 1.4253e-01
  </log>
</opt>
<opt stage="main" walkers="256000">
  <log>

*****************************************
Building overlap and Hamiltonian matrices
*****************************************

Among totally 30 optimized parameters, largest LM parameter change : 4.1434e-01 at parameter 20

******************************************************************************
Init Cost =   4.5033e+00    New Cost =   8.0842e-01  Delta Cost =  -3.6948e+00
******************************************************************************

The new set of parameters is valid. Updating the trial wave function!

*****************************************************************************
Applying the update for shift_i =   1.0000e-02     and shift_s =   2.5000e-01
*****************************************************************************
  Execution time = 1.7468e+00
  </log>
  <optVariables href="Ne.log.s001.opt.xml">
uu_0 1.7319e-01 1 1  ON 0
uu_1 1.0867e-01 1 1  ON 1
uu_2 5.7321e-02 1 1  ON 2
uu_3 2.0896e-02 1 1  ON 3
uu_4 -4.6655e-03 1 1  ON 4
uu_5 -2.1335e-02 1 1  ON 5
uu_6 -3.0639e-02 1 1  ON 6
uu_7 -3.3523e-02 1 1  ON 7
uu_8 -2.9200e-02 1 1  ON 8
uu_9 -2.2230e-02 1 1  ON 9
ud_0 2.7064e-01 1 1  ON 10
ud_1 1.4743e-01 1 1  ON 11
ud_2 6.8423e-02 1 1  ON 12
ud_3 1.9331e-02 1 1  ON 13
ud_4 -1.1802e-02 1 1  ON 14
ud_5 -3.0543e-02 1 1  ON 15
ud_6 -3.9978e-02 1 1  ON 16
ud_7 -4.1625e-02 1 1  ON 17
ud_8 -3.5974e-02 1 1  ON 18
ud_9 -2.6805e-02 1 1  ON 19
eNe_0 -4.1434e-01 1 1  ON 20
eNe_1 -3.3823e-01 1 1  ON 21
eNe_2 -1.8578e-01 1 1  ON 22
eNe_3 -3.3008e-02 1 1  ON 23
eNe_4 8.6999e-02 1 1  ON 24
eNe_5 1.6437e-01 1 1  ON 25
eNe_6 1.9830e-01 1 1  ON 26
eNe_7 1.9001e-01 1 1  ON 27
eNe_8 1.4617e-01 1 1  ON 28
eNe_9 8.2020e-02 1 1  ON 29
  </optVariables>
   Restore the number of walkers to 1, removing 0 walkers.
</opt>
</optimization-report>
  QMC Execution time = 1.7563e+00 secs
  Reusing QMCFixedSampleLinearOptimize
 Using QMCCostFunction::QMCCostFunction

=========================================================
  Start QMCFixedSampleLinearOptimize
  File Root Ne.log.s002 append = no 
=========================================================
  Skip QMCDriver::putQMCInfo 
  Resetting Properties of the walkers 1 x 13

=========================================================
  Start VMC
  File Root Ne.log.s002 append = no 
=========================================================
Using existing walkers 
  Resetting Properties of the walkers 1 x 13

<vmc function="put">
  qmc_counter=1  my_counter=1
  time step      = 1.5000e-01
  blocks         = 200
  steps          = 2
  substeps       = 5
  current        = 0
  target samples = 2.5600e+05
  walkers/mpi    = 1

  stepsbetweensamples = 1
<parameter name="blocks" condition="int">200</parameter>
<parameter name="blocks_between_recompute" condition="int">0</parameter>
<parameter name="check_properties" condition="int">100</parameter>
<parameter name="checkproperties" condition="int">100</parameter>
<parameter name="current" condition="int">0</parameter>
<parameter name="dmcwalkersperthread" condition="real">2.5000e+02</parameter>
<parameter name="maxcpusecs" condition="real">3.6000e+05</parameter>
<parameter name="record_configs" condition="int">0</parameter>
<parameter name="record_walkers" condition="int">1</parameter>
<parameter name="recordconfigs" condition="int">0</parameter>
<parameter name="recordwalkers" condition="int">1</parameter>
<parameter name="rewind" condition="int">0</parameter>
<parameter name="samples" condition="real">2.5600e+05</parameter>
<parameter name="samplesperthread" condition="real">2.5000e+02</parameter>
<parameter name="steps" condition="int">2</parameter>
<parameter name="stepsbetweensamples" condition="int">1</parameter>
<parameter name="store_configs" condition="int">0</parameter>
<parameter name="storeconfigs" condition="int">0</parameter>
<parameter name="sub_steps" condition="int">5</parameter>
<parameter name="substeps" condition="int">5</parameter>
<parameter name="tau" condition="au">1.5000e-01</parameter>
<parameter name="time_step" condition="au">1.5000e-01</parameter>
<parameter name="timestep" condition="au">1.5000e-01</parameter>
<parameter name="use_drift" condition="string">no</parameter>
<parameter name="usedrift" condition="string">no</parameter>
<parameter name="walkers" condition="int">1</parameter>
<parameter name="warmup_steps" condition="int">0</parameter>
<parameter name="warmupsteps" condition="int">0</parameter>
  DumpConfig==false Nothing (configurations, state) will be saved.
  Walker Samples are dumped every 1 steps.
</vmc>
  EstimatorManagerBase::add replace LocalEnergy estimator.
  EstimatorManagerBase::add replace LocalEnergy estimator.
<optimization-report>
<vmc stage="main" blocks="200">
  Cannot make clones again. Use existing 1 clones
  Initial partition of walkers 0 1 
  Using Particle by Particle moves
  Walker moves without drift
  Total Sample Size   =256000
  Walker distribution on root = 0 1 
  Using Locality Approximation
===== Memory Usage after the buffer registration =====
Available memory on node 0, free + buffers : 82392 MB
Memory footprint by rank 0 on node 0       : 75 MB
==================================================
====================================================
  SimpleFixedNodeBranch::finalize after a VMC block
    QMC counter        = 2
    time step          = 0.15
    reference energy   = -34.9572
    reference variance = 0.57061
====================================================
  Execution time = 2.1942e+00
</vmc>
<opt stage="setup">
  <log>
   Reading configurations from h5FileRoot Ne.log.s002
  QMCCostFunction is created with 1 threads.
  Using Nonlocal PP in Opt: NonLocalECP
   Number of samples loaded to each thread : 250 
  VMC Eavg = -3.4976e+01
  VMC Evar = 6.3414e-01
  Total weights = 2.5600e+05
  Execution time = 4.1081e-01
  </log>
</opt>
<opt stage="main" walkers="256000">
  <log>

*****************************************
Building overlap and Hamiltonian matrices
*****************************************

Among totally 30 optimized parameters, largest LM parameter change : 1.4568e-01 at parameter 20

******************************************************************************
Init Cost =   6.3414e-01    New Cost =   7.3021e-01  Delta Cost =   9.6069e-02
******************************************************************************

The new set of parameters is valid. Updating the trial wave function!

*****************************************************************************
Applying the update for shift_i =   1.0000e-02     and shift_s =   6.2500e-02
*****************************************************************************
  Execution time = 3.1718e+00
  </log>
  <optVariables href="Ne.log.s002.opt.xml">
uu_0 2.2384e-01 1 1  ON 0
uu_1 1.4725e-01 1 1  ON 1
uu_2 8.6332e-02 1 1  ON 2
uu_3 4.0082e-02 1 1  ON 3
uu_4 6.0080e-03 1 1  ON 4
uu_5 -1.7630e-02 1 1  ON 5
uu_6 -3.2135e-02 1 1  ON 6
uu_7 -3.8185e-02 1 1  ON 7
uu_8 -3.5468e-02 1 1  ON 8
uu_9 -2.7866e-02 1 1  ON 9
ud_0 3.3588e-01 1 1  ON 10
ud_1 1.9581e-01 1 1  ON 11
ud_2 1.0589e-01 1 1  ON 12
ud_3 4.5180e-02 1 1  ON 13
ud_4 4.1436e-03 1 1  ON 14
ud_5 -2.2915e-02 1 1  ON 15
ud_6 -3.8690e-02 1 1  ON 16
ud_7 -4.4932e-02 1 1  ON 17
ud_8 -4.0767e-02 1 1  ON 18
ud_9 -3.1314e-02 1 1  ON 19
eNe_0 -5.6003e-01 1 1  ON 20
eNe_1 -4.6800e-01 1 1  ON 21
eNe_2 -2.8134e-01 1 1  ON 22
eNe_3 -8.5758e-02 1 1  ON 23
eNe_4 7.5262e-02 1 1  ON 24
eNe_5 1.8745e-01 1 1  ON 25
eNe_6 2.4657e-01 1 1  ON 26
eNe_7 2.5459e-01 1 1  ON 27
eNe_8 2.0928e-01 1 1  ON 28
eNe_9 1.3528e-01 1 1  ON 29
  </optVariables>
   Restore the number of walkers to 1, removing 0 walkers.
</opt>
</optimization-report>
  QMC Execution time = 3.1809e+00 secs
  Reusing QMCFixedSampleLinearOptimize
 Using QMCCostFunction::QMCCostFunction

=========================================================
  Start QMCFixedSampleLinearOptimize
  File Root Ne.log.s003 append = no 
=========================================================
  Skip QMCDriver::putQMCInfo 
  Resetting Properties of the walkers 1 x 13

=========================================================
  Start VMC
  File Root Ne.log.s003 append = no 
=========================================================
Using existing walkers 
  Resetting Properties of the walkers 1 x 13

<vmc function="put">
  qmc_counter=2  my_counter=2
  time step      = 1.5000e-01
  blocks         = 200
  steps          = 2
  substeps       = 5
  current        = 0
  target samples = 2.5600e+05
  walkers/mpi    = 1

  stepsbetweensamples = 1
<parameter name="blocks" condition="int">200</parameter>
<parameter name="blocks_between_recompute" condition="int">0</parameter>
<parameter name="check_properties" condition="int">100</parameter>
<parameter name="checkproperties" condition="int">100</parameter>
<parameter name="current" condition="int">0</parameter>
<parameter name="dmcwalkersperthread" condition="real">2.5000e+02</parameter>
<parameter name="maxcpusecs" condition="real">3.6000e+05</parameter>
<parameter name="record_configs" condition="int">0</parameter>
<parameter name="record_walkers" condition="int">1</parameter>
<parameter name="recordconfigs" condition="int">0</parameter>
<parameter name="recordwalkers" condition="int">1</parameter>
<parameter name="rewind" condition="int">0</parameter>
<parameter name="samples" condition="real">2.5600e+05</parameter>
<parameter name="samplesperthread" condition="real">2.5000e+02</parameter>
<parameter name="steps" condition="int">2</parameter>
<parameter name="stepsbetweensamples" condition="int">1</parameter>
<parameter name="store_configs" condition="int">0</parameter>
<parameter name="storeconfigs" condition="int">0</parameter>
<parameter name="sub_steps" condition="int">5</parameter>
<parameter name="substeps" condition="int">5</parameter>
<parameter name="tau" condition="au">1.5000e-01</parameter>
<parameter name="time_step" condition="au">1.5000e-01</parameter>
<parameter name="timestep" condition="au">1.5000e-01</parameter>
<parameter name="use_drift" condition="string">no</parameter>
<parameter name="usedrift" condition="string">no</parameter>
<parameter name="walkers" condition="int">1</parameter>
<parameter name="warmup_steps" condition="int">0</parameter>
<parameter name="warmupsteps" condition="int">0</parameter>
  DumpConfig==false Nothing (configurations, state) will be saved.
  Walker Samples are dumped every 1 steps.
</vmc>
  EstimatorManagerBase::add replace LocalEnergy estimator.
  EstimatorManagerBase::add replace LocalEnergy estimator.
<optimization-report>
<vmc stage="main" blocks="200">
  Cannot make clones again. Use existing 1 clones
  Initial partition of walkers 0 1 
  Using Particle by Particle moves
  Walker moves without drift
  Total Sample Size   =256000
  Walker distribution on root = 0 1 
  Using Locality Approximation
===== Memory Usage after the buffer registration =====
Available memory on node 0, free + buffers : 82390 MB
Memory footprint by rank 0 on node 0       : 77 MB
==================================================
====================================================
  SimpleFixedNodeBranch::finalize after a VMC block
    QMC counter        = 3
    time step          = 0.15
    reference energy   = -35.0033
    reference variance = 0.941136
====================================================
  Execution time = 2.2065e+00
</vmc>
<opt stage="setup">
  <log>
   Reading configurations from h5FileRoot Ne.log.s003
  QMCCostFunction is created with 1 threads.
  Using Nonlocal PP in Opt: NonLocalECP
   Number of samples loaded to each thread : 250 
  VMC Eavg = -3.4983e+01
  VMC Evar = 7.0906e-01
  Total weights = 2.5600e+05
  Execution time = 5.4893e-01
  </log>
</opt>
<opt stage="main" walkers="256000">
  <log>

*****************************************
Building overlap and Hamiltonian matrices
*****************************************

Among totally 30 optimized parameters, largest LM parameter change : 6.0295e-02 at parameter 20

******************************************************************************
Init Cost =   7.0906e-01    New Cost =   7.2734e-01  Delta Cost =   1.8276e-02
******************************************************************************

The new set of parameters is valid. Updating the trial wave function!

*****************************************************************************
Applying the update for shift_i =   1.0000e-02     and shift_s =   1.5625e-02
*****************************************************************************
  Execution time = 3.3578e+00
  </log>
  <optVariables href="Ne.log.s003.opt.xml">
uu_0 2.3891e-01 1 1  ON 0
uu_1 1.6240e-01 1 1  ON 1
uu_2 1.0093e-01 1 1  ON 2
uu_3 5.3645e-02 1 1  ON 3
uu_4 1.8251e-02 1 1  ON 4
uu_5 -6.8967e-03 1 1  ON 5
uu_6 -2.3534e-02 1 1  ON 6
uu_7 -3.2396e-02 1 1  ON 7
uu_8 -3.1849e-02 1 1  ON 8
uu_9 -2.6435e-02 1 1  ON 9
ud_0 3.5438e-01 1 1  ON 10
ud_1 2.1308e-01 1 1  ON 11
ud_2 1.2197e-01 1 1  ON 12
ud_3 5.9934e-02 1 1  ON 13
ud_4 1.7051e-02 1 1  ON 14
ud_5 -1.2014e-02 1 1  ON 15
ud_6 -2.9957e-02 1 1  ON 16
ud_7 -3.8583e-02 1 1  ON 17
ud_8 -3.6649e-02 1 1  ON 18
ud_9 -2.8312e-02 1 1  ON 19
eNe_0 -6.2032e-01 1 1  ON 20
eNe_1 -5.2666e-01 1 1  ON 21
eNe_2 -3.3420e-01 1 1  ON 22
eNe_3 -1.3007e-01 1 1  ON 23
eNe_4 4.1092e-02 1 1  ON 24
eNe_5 1.6488e-01 1 1  ON 25
eNe_6 2.3756e-01 1 1  ON 26
eNe_7 2.5980e-01 1 1  ON 27
eNe_8 2.2357e-01 1 1  ON 28
eNe_9 1.6038e-01 1 1  ON 29
  </optVariables>
   Restore the number of walkers to 1, removing 0 walkers.
</opt>
</optimization-report>
  QMC Execution time = 3.3668e+00 secs
  Reusing QMCFixedSampleLinearOptimize
 Using QMCCostFunction::QMCCostFunction

=========================================================
  Start QMCFixedSampleLinearOptimize
  File Root Ne.log.s004 append = no 
=========================================================
  Skip QMCDriver::putQMCInfo 
  Resetting Properties of the walkers 1 x 13

=========================================================
  Start VMC
  File Root Ne.log.s004 append = no 
=========================================================
Using existing walkers 
  Resetting Properties of the walkers 1 x 13

<vmc function="put">
  qmc_counter=3  my_counter=3
  time step      = 1.5000e-01
  blocks         = 200
  steps          = 2
  substeps       = 5
  current        = 0
  target samples = 2.5600e+05
  walkers/mpi    = 1

  stepsbetweensamples = 1
<parameter name="blocks" condition="int">200</parameter>
<parameter name="blocks_between_recompute" condition="int">0</parameter>
<parameter name="check_properties" condition="int">100</parameter>
<parameter name="checkproperties" condition="int">100</parameter>
<parameter name="current" condition="int">0</parameter>
<parameter name="dmcwalkersperthread" condition="real">2.5000e+02</parameter>
<parameter name="maxcpusecs" condition="real">3.6000e+05</parameter>
<parameter name="record_configs" condition="int">0</parameter>
<parameter name="record_walkers" condition="int">1</parameter>
<parameter name="recordconfigs" condition="int">0</parameter>
<parameter name="recordwalkers" condition="int">1</parameter>
<parameter name="rewind" condition="int">0</parameter>
<parameter name="samples" condition="real">2.5600e+05</parameter>
<parameter name="samplesperthread" condition="real">2.5000e+02</parameter>
<parameter name="steps" condition="int">2</parameter>
<parameter name="stepsbetweensamples" condition="int">1</parameter>
<parameter name="store_configs" condition="int">0</parameter>
<parameter name="storeconfigs" condition="int">0</parameter>
<parameter name="sub_steps" condition="int">5</parameter>
<parameter name="substeps" condition="int">5</parameter>
<parameter name="tau" condition="au">1.5000e-01</parameter>
<parameter name="time_step" condition="au">1.5000e-01</parameter>
<parameter name="timestep" condition="au">1.5000e-01</parameter>
<parameter name="use_drift" condition="string">no</parameter>
<parameter name="usedrift" condition="string">no</parameter>
<parameter name="walkers" condition="int">1</parameter>
<parameter name="warmup_steps" condition="int">0</parameter>
<parameter name="warmupsteps" condition="int">0</parameter>
  DumpConfig==false Nothing (configurations, state) will be saved.
  Walker Samples are dumped every 1 steps.
</vmc>
  EstimatorManagerBase::add replace LocalEnergy estimator.
  EstimatorManagerBase::add replace LocalEnergy estimator.
<optimization-report>
<vmc stage="main" blocks="200">
  Cannot make clones again. Use existing 1 clones
  Initial partition of walkers 0 1 
  Using Particle by Particle moves
  Walker moves without drift
  Total Sample Size   =256000
  Walker distribution on root = 0 1 
  Using Locality Approximation
===== Memory Usage after the buffer registration =====
Available memory on node 0, free + buffers : 82388 MB
Memory footprint by rank 0 on node 0       : 78 MB
==================================================
====================================================
  SimpleFixedNodeBranch::finalize after a VMC block
    QMC counter        = 4
    time step          = 0.15
    reference energy   = -35.0015
    reference variance = 0.709906
====================================================
  Execution time = 2.2190e+00
</vmc>
<opt stage="setup">
  <log>
   Reading configurations from h5FileRoot Ne.log.s004
  QMCCostFunction is created with 1 threads.
  Using Nonlocal PP in Opt: NonLocalECP
   Number of samples loaded to each thread : 250 
  VMC Eavg = -3.4987e+01
  VMC Evar = 7.1638e-01
  Total weights = 2.5600e+05
  Execution time = 6.0098e-01
  </log>
</opt>
<opt stage="main" walkers="256000">
  <log>

*****************************************
Building overlap and Hamiltonian matrices
*****************************************

Among totally 30 optimized parameters, largest LM parameter change : 3.6162e-02 at parameter 20

******************************************************************************
Init Cost =   7.1638e-01    New Cost =   7.1816e-01  Delta Cost =   1.7848e-03
******************************************************************************

The new set of parameters is valid. Updating the trial wave function!

*****************************************************************************
Applying the update for shift_i =   1.0000e-02     and shift_s =   3.9062e-03
*****************************************************************************
  Execution time = 3.4391e+00
  </log>
  <optVariables href="Ne.log.s004.opt.xml">
uu_0 2.4764e-01 1 1  ON 0
uu_1 1.6970e-01 1 1  ON 1
uu_2 1.0765e-01 1 1  ON 2
uu_3 6.0059e-02 1 1  ON 3
uu_4 2.4362e-02 1 1  ON 4
uu_5 -1.3617e-03 1 1  ON 5
uu_6 -1.8367e-02 1 1  ON 6
uu_7 -2.7824e-02 1 1  ON 7
uu_8 -2.8677e-02 1 1  ON 8
uu_9 -2.4083e-02 1 1  ON 9
ud_0 3.6074e-01 1 1  ON 10
ud_1 2.1973e-01 1 1  ON 11
ud_2 1.2845e-01 1 1  ON 12
ud_3 6.6260e-02 1 1  ON 13
ud_4 2.3178e-02 1 1  ON 14
ud_5 -6.0476e-03 1 1  ON 15
ud_6 -2.4440e-02 1 1  ON 16
ud_7 -3.3710e-02 1 1  ON 17
ud_8 -3.2893e-02 1 1  ON 18
ud_9 -2.6468e-02 1 1  ON 19
eNe_0 -6.5648e-01 1 1  ON 20
eNe_1 -5.6134e-01 1 1  ON 21
eNe_2 -3.6820e-01 1 1  ON 22
eNe_3 -1.6324e-01 1 1  ON 23
eNe_4 9.5654e-03 1 1  ON 24
eNe_5 1.3650e-01 1 1  ON 25
eNe_6 2.1396e-01 1 1  ON 26
eNe_7 2.4320e-01 1 1  ON 27
eNe_8 2.1605e-01 1 1  ON 28
eNe_9 1.5916e-01 1 1  ON 29
  </optVariables>
   Restore the number of walkers to 1, removing 0 walkers.
</opt>
</optimization-report>
  QMC Execution time = 3.4482e+00 secs
  Reusing QMCFixedSampleLinearOptimize
 Using QMCCostFunction::QMCCostFunction

=========================================================
  Start QMCFixedSampleLinearOptimize
  File Root Ne.log.s005 append = no 
=========================================================
  Skip QMCDriver::putQMCInfo 
  Resetting Properties of the walkers 1 x 13

=========================================================
  Start VMC
  File Root Ne.log.s005 append = no 
=========================================================
Using existing walkers 
  Resetting Properties of the walkers 1 x 13

<vmc function="put">
  qmc_counter=4  my_counter=4
  time step      = 1.5000e-01
  blocks         = 200
  steps          = 2
  substeps       = 5
  current        = 0
  target samples = 2.5600e+05
  walkers/mpi    = 1

  stepsbetweensamples = 1
<parameter name="blocks" condition="int">200</parameter>
<parameter name="blocks_between_recompute" condition="int">0</parameter>
<parameter name="check_properties" condition="int">100</parameter>
<parameter name="checkproperties" condition="int">100</parameter>
<parameter name="current" condition="int">0</parameter>
<parameter name="dmcwalkersperthread" condition="real">2.5000e+02</parameter>
<parameter name="maxcpusecs" condition="real">3.6000e+05</parameter>
<parameter name="record_configs" condition="int">0</parameter>
<parameter name="record_walkers" condition="int">1</parameter>
<parameter name="recordconfigs" condition="int">0</parameter>
<parameter name="recordwalkers" condition="int">1</parameter>
<parameter name="rewind" condition="int">0</parameter>
<parameter name="samples" condition="real">2.5600e+05</parameter>
<parameter name="samplesperthread" condition="real">2.5000e+02</parameter>
<parameter name="steps" condition="int">2</parameter>
<parameter name="stepsbetweensamples" condition="int">1</parameter>
<parameter name="store_configs" condition="int">0</parameter>
<parameter name="storeconfigs" condition="int">0</parameter>
<parameter name="sub_steps" condition="int">5</parameter>
<parameter name="substeps" condition="int">5</parameter>
<parameter name="tau" condition="au">1.5000e-01</parameter>
<parameter name="time_step" condition="au">1.5000e-01</parameter>
<parameter name="timestep" condition="au">1.5000e-01</parameter>
<parameter name="use_drift" condition="string">no</parameter>
<parameter name="usedrift" condition="string">no</parameter>
<parameter name="walkers" condition="int">1</parameter>
<parameter name="warmup_steps" condition="int">0</parameter>
<parameter name="warmupsteps" condition="int">0</parameter>
  DumpConfig==false Nothing (configurations, state) will be saved.
  Walker Samples are dumped every 1 steps.
</vmc>
  EstimatorManagerBase::add replace LocalEnergy estimator.
  EstimatorManagerBase::add replace LocalEnergy estimator.
<optimization-report>
<vmc stage="main" blocks="200">
  Cannot make clones again. Use existing 1 clones
  Initial partition of walkers 0 1 
  Using Particle by Particle moves
  Walker moves without drift
  Total Sample Size   =256000
  Walker distribution on root = 0 1 
  Using Locality Approximation
===== Memory Usage after the buffer registration =====
Available memory on node 0, free + buffers : 82386 MB
Memory footprint by rank 0 on node 0       : 80 MB
==================================================
====================================================
  SimpleFixedNodeBranch::finalize after a VMC block
    QMC counter        = 5
    time step          = 0.15
    reference energy   = -34.942
    reference variance = 0.686283
====================================================
  Execution time = 2.2192e+00
</vmc>
<opt stage="setup">
  <log>
   Reading configurations from h5FileRoot Ne.log.s005
  QMCCostFunction is created with 1 threads.
  Using Nonlocal PP in Opt: NonLocalECP
   Number of samples loaded to each thread : 250 
  VMC Eavg = -3.4988e+01
  VMC Evar = 7.3235e-01
  Total weights = 2.5600e+05
  Execution time = 6.1307e-01
  </log>
</opt>
<opt stage="main" walkers="256000">
  <log>

*****************************************
Building overlap and Hamiltonian matrices
*****************************************

Among totally 30 optimized parameters, largest LM parameter change : 3.4046e-02 at parameter 21

******************************************************************************
Init Cost =   7.3235e-01    New Cost =   7.3192e-01  Delta Cost =  -4.2973e-04
******************************************************************************

The new set of parameters is valid. Updating the trial wave function!

*****************************************************************************
Applying the update for shift_i =   1.0000e-02     and shift_s =   3.9062e-03
*****************************************************************************
  Execution time = 3.4537e+00
  </log>
  <optVariables href="Ne.log.s005.opt.xml">
uu_0 2.5016e-01 1 1  ON 0
uu_1 1.7296e-01 1 1  ON 1
uu_2 1.1121e-01 1 1  ON 2
uu_3 6.3245e-02 1 1  ON 3
uu_4 2.7439e-02 1 1  ON 4
uu_5 1.0299e-03 1 1  ON 5
uu_6 -1.6557e-02 1 1  ON 6
uu_7 -2.6452e-02 1 1  ON 7
uu_8 -2.7737e-02 1 1  ON 8
uu_9 -2.3580e-02 1 1  ON 9
ud_0 3.5876e-01 1 1  ON 10
ud_1 2.1767e-01 1 1  ON 11
ud_2 1.2668e-01 1 1  ON 12
ud_3 6.4423e-02 1 1  ON 13
ud_4 2.1409e-02 1 1  ON 14
ud_5 -7.9368e-03 1 1  ON 15
ud_6 -2.6473e-02 1 1  ON 16
ud_7 -3.6058e-02 1 1  ON 17
ud_8 -3.5338e-02 1 1  ON 18
ud_9 -2.9721e-02 1 1  ON 19
eNe_0 -6.9041e-01 1 1  ON 20
eNe_1 -5.9538e-01 1 1  ON 21
eNe_2 -4.0138e-01 1 1  ON 22
eNe_3 -1.9515e-01 1 1  ON 23
eNe_4 -1.9698e-02 1 1  ON 24
eNe_5 1.0986e-01 1 1  ON 25
eNe_6 1.8844e-01 1 1  ON 26
eNe_7 2.2023e-01 1 1  ON 27
eNe_8 1.9894e-01 1 1  ON 28
eNe_9 1.4726e-01 1 1  ON 29
  </optVariables>
   Restore the number of walkers to 1, removing 0 walkers.
</opt>
</optimization-report>
  QMC Execution time = 3.4626e+00 secs
Loop execution max-interations = 5
  Reusing QMCFixedSampleLinearOptimize
 Using QMCCostFunction::QMCCostFunction

=========================================================
  Start QMCFixedSampleLinearOptimize
  File Root Ne.log.s006 append = no 
=========================================================
  Skip QMCDriver::putQMCInfo 
  Resetting Properties of the walkers 1 x 13

=========================================================
  Start VMC
  File Root Ne.log.s006 append = no 
=========================================================
  Using the current 1 walkers.
  Total number of walkers: 1.0240e+03
  Total weight: 1.0240e+03
  Resetting Properties of the walkers 1 x 13

<vmc function="put">
  qmc_counter=0  my_counter=5
  time step      = 1.5000e-01
  blocks         = 200
  steps          = 2
  substeps       = 5
  current        = 0
  target samples = 2.5600e+05
  walkers/mpi    = 1

  stepsbetweensamples = 1
<parameter name="blocks" condition="int">200</parameter>
<parameter name="blocks_between_recompute" condition="int">0</parameter>
<parameter name="check_properties" condition="int">100</parameter>
<parameter name="checkproperties" condition="int">100</parameter>
<parameter name="current" condition="int">0</parameter>
<parameter name="dmcwalkersperthread" condition="real">2.5000e+02</parameter>
<parameter name="maxcpusecs" condition="real">3.6000e+05</parameter>
<parameter name="record_configs" condition="int">0</parameter>
<parameter name="record_walkers" condition="int">1</parameter>
<parameter name="recordconfigs" condition="int">0</parameter>
<parameter name="recordwalkers" condition="int">1</parameter>
<parameter name="rewind" condition="int">0</parameter>
<parameter name="samples" condition="real">2.5600e+05</parameter>
<parameter name="samplesperthread" condition="real">2.5000e+02</parameter>
<parameter name="steps" condition="int">2</parameter>
<parameter name="stepsbetweensamples" condition="int">1</parameter>
<parameter name="store_configs" condition="int">0</parameter>
<parameter name="storeconfigs" condition="int">0</parameter>
<parameter name="sub_steps" condition="int">5</parameter>
<parameter name="substeps" condition="int">5</parameter>
<parameter name="tau" condition="au">1.5000e-01</parameter>
<parameter name="time_step" condition="au">1.5000e-01</parameter>
<parameter name="timestep" condition="au">1.5000e-01</parameter>
<parameter name="use_drift" condition="string">no</parameter>
<parameter name="usedrift" condition="string">no</parameter>
<parameter name="walkers" condition="int">1</parameter>
<parameter name="warmup_steps" condition="int">0</parameter>
<parameter name="warmupsteps" condition="int">0</parameter>
  DumpConfig==false Nothing (configurations, state) will be saved.
  Walker Samples are dumped every 1 steps.
</vmc>
  EstimatorManagerBase::add replace LocalEnergy estimator.
  EstimatorManagerBase::add replace LocalEnergy estimator.
<optimization-report>
<vmc stage="main" blocks="200">
  Cannot make clones again. Use existing 1 clones
  Initial partition of walkers 0 1 
  Using Particle by Particle moves
  Walker moves without drift
  Total Sample Size   =256000
  Walker distribution on root = 0 1 
  Using Locality Approximation
===== Memory Usage after the buffer registration =====
Available memory on node 0, free + buffers : 82385 MB
Memory footprint by rank 0 on node 0       : 82 MB
==================================================
====================================================
  SimpleFixedNodeBranch::finalize after a VMC block
    QMC counter        = 6
    time step          = 0.15
    reference energy   = -34.9864
    reference variance = 0.618368
====================================================
  Execution time = 2.2214e+00
</vmc>
<opt stage="setup">
  <log>
   Reading configurations from h5FileRoot Ne.log.s006
  QMCCostFunction is created with 1 threads.
  Using Nonlocal PP in Opt: NonLocalECP
   Number of samples loaded to each thread : 250 
  VMC Eavg = -3.4988e+01
  VMC Evar = 7.0489e-01
  Total weights = 2.5600e+05
  Execution time = 6.1049e-01
  </log>
</opt>
<opt stage="main" walkers="256000">
  <log>

*****************************************
Building overlap and Hamiltonian matrices
*****************************************

Among totally 30 optimized parameters, largest LM parameter change : 2.7691e-02 at parameter 20

******************************************************************************
Init Cost =   7.0489e-01    New Cost =   7.0492e-01  Delta Cost =   3.7557e-05
******************************************************************************

The new set of parameters is valid. Updating the trial wave function!

*****************************************************************************
Applying the update for shift_i =   1.0000e-02     and shift_s =   3.9062e-03
*****************************************************************************
  Execution time = 3.4417e+00
  </log>
  <optVariables href="Ne.log.s006.opt.xml">
uu_0 2.5915e-01 1 1  ON 0
uu_1 1.8087e-01 1 1  ON 1
uu_2 1.1919e-01 1 1  ON 2
uu_3 7.1196e-02 1 1  ON 3
uu_4 3.5243e-02 1 1  ON 4
uu_5 8.8985e-03 1 1  ON 5
uu_6 -8.9577e-03 1 1  ON 6
uu_7 -1.9458e-02 1 1  ON 7
uu_8 -2.2303e-02 1 1  ON 8
uu_9 -2.0370e-02 1 1  ON 9
ud_0 3.6999e-01 1 1  ON 10
ud_1 2.2942e-01 1 1  ON 11
ud_2 1.3787e-01 1 1  ON 12
ud_3 7.5345e-02 1 1  ON 13
ud_4 3.1927e-02 1 1  ON 14
ud_5 2.0259e-03 1 1  ON 15
ud_6 -1.7100e-02 1 1  ON 16
ud_7 -2.7346e-02 1 1  ON 17
ud_8 -2.7972e-02 1 1  ON 18
ud_9 -2.3338e-02 1 1  ON 19
eNe_0 -7.1810e-01 1 1  ON 20
eNe_1 -6.2269e-01 1 1  ON 21
eNe_2 -4.2807e-01 1 1  ON 22
eNe_3 -2.2033e-01 1 1  ON 23
eNe_4 -4.4310e-02 1 1  ON 24
eNe_5 8.7161e-02 1 1  ON 25
eNe_6 1.6974e-01 1 1  ON 26
eNe_7 2.0684e-01 1 1  ON 27
eNe_8 1.9001e-01 1 1  ON 28
eNe_9 1.4322e-01 1 1  ON 29
  </optVariables>
   Restore the number of walkers to 1, removing 0 walkers.
</opt>
</optimization-report>
  QMC Execution time = 3.4508e+00 secs
  Reusing QMCFixedSampleLinearOptimize
 Using QMCCostFunction::QMCCostFunction

=========================================================
  Start QMCFixedSampleLinearOptimize
  File Root Ne.log.s007 append = no 
=========================================================
  Skip QMCDriver::putQMCInfo 
  Resetting Properties of the walkers 1 x 13

=========================================================
  Start VMC
  File Root Ne.log.s007 append = no 
=========================================================
Using existing walkers 
  Resetting Properties of the walkers 1 x 13

<vmc function="put">
  qmc_counter=1  my_counter=6
  time step      = 1.5000e-01
  blocks         = 200
  steps          = 2
  substeps       = 5
  current        = 0
  target samples = 2.5600e+05
  walkers/mpi    = 1

  stepsbetweensamples = 1
<parameter name="blocks" condition="int">200</parameter>
<parameter name="blocks_between_recompute" condition="int">0</parameter>
<parameter name="check_properties" condition="int">100</parameter>
<parameter name="checkproperties" condition="int">100</parameter>
<parameter name="current" condition="int">0</parameter>
<parameter name="dmcwalkersperthread" condition="real">2.5000e+02</parameter>
<parameter name="maxcpusecs" condition="real">3.6000e+05</parameter>
<parameter name="record_configs" condition="int">0</parameter>
<parameter name="record_walkers" condition="int">1</parameter>
<parameter name="recordconfigs" condition="int">0</parameter>
<parameter name="recordwalkers" condition="int">1</parameter>
<parameter name="rewind" condition="int">0</parameter>
<parameter name="samples" condition="real">2.5600e+05</parameter>
<parameter name="samplesperthread" condition="real">2.5000e+02</parameter>
<parameter name="steps" condition="int">2</parameter>
<parameter name="stepsbetweensamples" condition="int">1</parameter>
<parameter name="store_configs" condition="int">0</parameter>
<parameter name="storeconfigs" condition="int">0</parameter>
<parameter name="sub_steps" condition="int">5</parameter>
<parameter name="substeps" condition="int">5</parameter>
<parameter name="tau" condition="au">1.5000e-01</parameter>
<parameter name="time_step" condition="au">1.5000e-01</parameter>
<parameter name="timestep" condition="au">1.5000e-01</parameter>
<parameter name="use_drift" condition="string">no</parameter>
<parameter name="usedrift" condition="string">no</parameter>
<parameter name="walkers" condition="int">1</parameter>
<parameter name="warmup_steps" condition="int">0</parameter>
<parameter name="warmupsteps" condition="int">0</parameter>
  DumpConfig==false Nothing (configurations, state) will be saved.
  Walker Samples are dumped every 1 steps.
</vmc>
  EstimatorManagerBase::add replace LocalEnergy estimator.
  EstimatorManagerBase::add replace LocalEnergy estimator.
<optimization-report>
<vmc stage="main" blocks="200">
  Cannot make clones again. Use existing 1 clones
  Initial partition of walkers 0 1 
  Using Particle by Particle moves
  Walker moves without drift
  Total Sample Size   =256000
  Walker distribution on root = 0 1 
  Using Locality Approximation
===== Memory Usage after the buffer registration =====
Available memory on node 0, free + buffers : 82383 MB
Memory footprint by rank 0 on node 0       : 83 MB
==================================================
====================================================
  SimpleFixedNodeBranch::finalize after a VMC block
    QMC counter        = 7
    time step          = 0.15
    reference energy   = -34.9585
    reference variance = 0.61158
====================================================
  Execution time = 2.2200e+00
</vmc>
<opt stage="setup">
  <log>
   Reading configurations from h5FileRoot Ne.log.s007
  QMCCostFunction is created with 1 threads.
  Using Nonlocal PP in Opt: NonLocalECP
   Number of samples loaded to each thread : 250 
  VMC Eavg = -3.4985e+01
  VMC Evar = 7.7209e-01
  Total weights = 2.5600e+05
  Execution time = 6.0248e-01
  </log>
</opt>
<opt stage="main" walkers="256000">
  <log>

*****************************************
Building overlap and Hamiltonian matrices
*****************************************

Among totally 30 optimized parameters, largest LM parameter change : 2.6309e-02 at parameter 21

******************************************************************************
Init Cost =   7.7209e-01    New Cost =   7.7497e-01  Delta Cost =   2.8731e-03
******************************************************************************

The new set of parameters is valid. Updating the trial wave function!

*****************************************************************************
Applying the update for shift_i =   1.0000e-02     and shift_s =   3.9062e-03
*****************************************************************************
  Execution time = 3.4265e+00
  </log>
  <optVariables href="Ne.log.s007.opt.xml">
uu_0 2.5913e-01 1 1  ON 0
uu_1 1.8053e-01 1 1  ON 1
uu_2 1.1850e-01 1 1  ON 2
uu_3 7.0603e-02 1 1  ON 3
uu_4 3.4641e-02 1 1  ON 4
uu_5 8.4920e-03 1 1  ON 5
uu_6 -9.2440e-03 1 1  ON 6
uu_7 -1.9656e-02 1 1  ON 7
uu_8 -2.2061e-02 1 1  ON 8
uu_9 -1.9145e-02 1 1  ON 9
ud_0 3.7366e-01 1 1  ON 10
ud_1 2.3175e-01 1 1  ON 11
ud_2 1.4032e-01 1 1  ON 12
ud_3 7.7827e-02 1 1  ON 13
ud_4 3.4106e-02 1 1  ON 14
ud_5 4.1669e-03 1 1  ON 15
ud_6 -1.4953e-02 1 1  ON 16
ud_7 -2.5571e-02 1 1  ON 17
ud_8 -2.6867e-02 1 1  ON 18
ud_9 -2.2779e-02 1 1  ON 19
eNe_0 -7.4373e-01 1 1  ON 20
eNe_1 -6.4900e-01 1 1  ON 21
eNe_2 -4.5424e-01 1 1  ON 22
eNe_3 -2.4575e-01 1 1  ON 23
eNe_4 -6.8131e-02 1 1  ON 24
eNe_5 6.4032e-02 1 1  ON 25
eNe_6 1.4941e-01 1 1  ON 26
eNe_7 1.8707e-01 1 1  ON 27
eNe_8 1.7575e-01 1 1  ON 28
eNe_9 1.3497e-01 1 1  ON 29
  </optVariables>
   Restore the number of walkers to 1, removing 0 walkers.
</opt>
</optimization-report>
  QMC Execution time = 3.4356e+00 secs
  Reusing QMCFixedSampleLinearOptimize
 Using QMCCostFunction::QMCCostFunction

=========================================================
  Start QMCFixedSampleLinearOptimize
  File Root Ne.log.s008 append = no 
=========================================================
  Skip QMCDriver::putQMCInfo 
  Resetting Properties of the walkers 1 x 13

=========================================================
  Start VMC
  File Root Ne.log.s008 append = no 
=========================================================
Using existing walkers 
  Resetting Properties of the walkers 1 x 13

<vmc function="put">
  qmc_counter=2  my_counter=7
  time step      = 1.5000e-01
  blocks         = 200
  steps          = 2
  substeps       = 5
  current        = 0
  target samples = 2.5600e+05
  walkers/mpi    = 1

  stepsbetweensamples = 1
<parameter name="blocks" condition="int">200</parameter>
<parameter name="blocks_between_recompute" condition="int">0</parameter>
<parameter name="check_properties" condition="int">100</parameter>
<parameter name="checkproperties" condition="int">100</parameter>
<parameter name="current" condition="int">0</parameter>
<parameter name="dmcwalkersperthread" condition="real">2.5000e+02</parameter>
<parameter name="maxcpusecs" condition="real">3.6000e+05</parameter>
<parameter name="record_configs" condition="int">0</parameter>
<parameter name="record_walkers" condition="int">1</parameter>
<parameter name="recordconfigs" condition="int">0</parameter>
<parameter name="recordwalkers" condition="int">1</parameter>
<parameter name="rewind" condition="int">0</parameter>
<parameter name="samples" condition="real">2.5600e+05</parameter>
<parameter name="samplesperthread" condition="real">2.5000e+02</parameter>
<parameter name="steps" condition="int">2</parameter>
<parameter name="stepsbetweensamples" condition="int">1</parameter>
<parameter name="store_configs" condition="int">0</parameter>
<parameter name="storeconfigs" condition="int">0</parameter>
<parameter name="sub_steps" condition="int">5</parameter>
<parameter name="substeps" condition="int">5</parameter>
<parameter name="tau" condition="au">1.5000e-01</parameter>
<parameter name="time_step" condition="au">1.5000e-01</parameter>
<parameter name="timestep" condition="au">1.5000e-01</parameter>
<parameter name="use_drift" condition="string">no</parameter>
<parameter name="usedrift" condition="string">no</parameter>
<parameter name="walkers" condition="int">1</parameter>
<parameter name="warmup_steps" condition="int">0</parameter>
<parameter name="warmupsteps" condition="int">0</parameter>
  DumpConfig==false Nothing (configurations, state) will be saved.
  Walker Samples are dumped every 1 steps.
</vmc>
  EstimatorManagerBase::add replace LocalEnergy estimator.
  EstimatorManagerBase::add replace LocalEnergy estimator.
<optimization-report>
<vmc stage="main" blocks="200">
  Cannot make clones again. Use existing 1 clones
  Initial partition of walkers 0 1 
  Using Particle by Particle moves
  Walker moves without drift
  Total Sample Size   =256000
  Walker distribution on root = 0 1 
  Using Locality Approximation
===== Memory Usage after the buffer registration =====
Available memory on node 0, free + buffers : 82381 MB
Memory footprint by rank 0 on node 0       : 85 MB
==================================================
====================================================
  SimpleFixedNodeBranch::finalize after a VMC block
    QMC counter        = 8
    time step          = 0.15
    reference energy   = -34.9589
    reference variance = 0.681858
====================================================
  Execution time = 2.2231e+00
</vmc>
<opt stage="setup">
  <log>
   Reading configurations from h5FileRoot Ne.log.s008
  QMCCostFunction is created with 1 threads.
  Using Nonlocal PP in Opt: NonLocalECP
   Number of samples loaded to each thread : 250 
  VMC Eavg = -3.4987e+01
  VMC Evar = 7.4095e-01
  Total weights = 2.5600e+05
  Execution time = 5.9989e-01
  </log>
</opt>
<opt stage="main" walkers="256000">
  <log>

*****************************************
Building overlap and Hamiltonian matrices
*****************************************

Among totally 30 optimized parameters, largest LM parameter change : 2.3917e-02 at parameter 24

******************************************************************************
Init Cost =   7.4095e-01    New Cost =   7.3671e-01  Delta Cost =  -4.2361e-03
******************************************************************************

The new set of parameters is valid. Updating the trial wave function!

*****************************************************************************
Applying the update for shift_i =   1.0000e-02     and shift_s =   3.9062e-03
*****************************************************************************
  Execution time = 3.4282e+00
  </log>
  <optVariables href="Ne.log.s008.opt.xml">
uu_0 2.5816e-01 1 1  ON 0
uu_1 1.8021e-01 1 1  ON 1
uu_2 1.1844e-01 1 1  ON 2
uu_3 7.1049e-02 1 1  ON 3
uu_4 3.5298e-02 1 1  ON 4
uu_5 9.5661e-03 1 1  ON 5
uu_6 -7.7990e-03 1 1  ON 6
uu_7 -1.8405e-02 1 1  ON 7
uu_8 -2.0739e-02 1 1  ON 8
uu_9 -1.9047e-02 1 1  ON 9
ud_0 3.7236e-01 1 1  ON 10
ud_1 2.3144e-01 1 1  ON 11
ud_2 1.3972e-01 1 1  ON 12
ud_3 7.7216e-02 1 1  ON 13
ud_4 3.3700e-02 1 1  ON 14
ud_5 3.8354e-03 1 1  ON 15
ud_6 -1.5694e-02 1 1  ON 16
ud_7 -2.6532e-02 1 1  ON 17
ud_8 -2.7773e-02 1 1  ON 18
ud_9 -2.3546e-02 1 1  ON 19
eNe_0 -7.6467e-01 1 1  ON 20
eNe_1 -6.6984e-01 1 1  ON 21
eNe_2 -4.7587e-01 1 1  ON 22
eNe_3 -2.6838e-01 1 1  ON 23
eNe_4 -9.2048e-02 1 1  ON 24
eNe_5 4.1127e-02 1 1  ON 25
eNe_6 1.2643e-01 1 1  ON 26
eNe_7 1.6686e-01 1 1  ON 27
eNe_8 1.5867e-01 1 1  ON 28
eNe_9 1.1923e-01 1 1  ON 29
  </optVariables>
   Restore the number of walkers to 1, removing 0 walkers.
</opt>
</optimization-report>
  QMC Execution time = 3.8752e+00 secs
  Reusing QMCFixedSampleLinearOptimize
 Using QMCCostFunction::QMCCostFunction

=========================================================
  Start QMCFixedSampleLinearOptimize
  File Root Ne.log.s009 append = no 
=========================================================
  Skip QMCDriver::putQMCInfo 
  Resetting Properties of the walkers 1 x 13

=========================================================
  Start VMC
  File Root Ne.log.s009 append = no 
=========================================================
Using existing walkers 
  Resetting Properties of the walkers 1 x 13

<vmc function="put">
  qmc_counter=3  my_counter=8
  time step      = 1.5000e-01
  blocks         = 200
  steps          = 2
  substeps       = 5
  current        = 0
  target samples = 2.5600e+05
  walkers/mpi    = 1

  stepsbetweensamples = 1
<parameter name="blocks" condition="int">200</parameter>
<parameter name="blocks_between_recompute" condition="int">0</parameter>
<parameter name="check_properties" condition="int">100</parameter>
<parameter name="checkproperties" condition="int">100</parameter>
<parameter name="current" condition="int">0</parameter>
<parameter name="dmcwalkersperthread" condition="real">2.5000e+02</parameter>
<parameter name="maxcpusecs" condition="real">3.6000e+05</parameter>
<parameter name="record_configs" condition="int">0</parameter>
<parameter name="record_walkers" condition="int">1</parameter>
<parameter name="recordconfigs" condition="int">0</parameter>
<parameter name="recordwalkers" condition="int">1</parameter>
<parameter name="rewind" condition="int">0</parameter>
<parameter name="samples" condition="real">2.5600e+05</parameter>
<parameter name="samplesperthread" condition="real">2.5000e+02</parameter>
<parameter name="steps" condition="int">2</parameter>
<parameter name="stepsbetweensamples" condition="int">1</parameter>
<parameter name="store_configs" condition="int">0</parameter>
<parameter name="storeconfigs" condition="int">0</parameter>
<parameter name="sub_steps" condition="int">5</parameter>
<parameter name="substeps" condition="int">5</parameter>
<parameter name="tau" condition="au">1.5000e-01</parameter>
<parameter name="time_step" condition="au">1.5000e-01</parameter>
<parameter name="timestep" condition="au">1.5000e-01</parameter>
<parameter name="use_drift" condition="string">no</parameter>
<parameter name="usedrift" condition="string">no</parameter>
<parameter name="walkers" condition="int">1</parameter>
<parameter name="warmup_steps" condition="int">0</parameter>
<parameter name="warmupsteps" condition="int">0</parameter>
  DumpConfig==false Nothing (configurations, state) will be saved.
  Walker Samples are dumped every 1 steps.
</vmc>
  EstimatorManagerBase::add replace LocalEnergy estimator.
  EstimatorManagerBase::add replace LocalEnergy estimator.
<optimization-report>
<vmc stage="main" blocks="200">
  Cannot make clones again. Use existing 1 clones
  Initial partition of walkers 0 1 
  Using Particle by Particle moves
  Walker moves without drift
  Total Sample Size   =256000
  Walker distribution on root = 0 1 
  Using Locality Approximation
===== Memory Usage after the buffer registration =====
Available memory on node 0, free + buffers : 82378 MB
Memory footprint by rank 0 on node 0       : 87 MB
==================================================
====================================================
  SimpleFixedNodeBranch::finalize after a VMC block
    QMC counter        = 9
    time step          = 0.15
    reference energy   = -34.99
    reference variance = 0.765943
====================================================
  Execution time = 2.1842e+00
</vmc>
<opt stage="setup">
  <log>
   Reading configurations from h5FileRoot Ne.log.s009
  QMCCostFunction is created with 1 threads.
  Using Nonlocal PP in Opt: NonLocalECP
   Number of samples loaded to each thread : 250 
  VMC Eavg = -3.4988e+01
  VMC Evar = 7.2850e-01
  Total weights = 2.5600e+05
  Execution time = 5.9488e-01
  </log>
</opt>
<opt stage="main" walkers="256000">
  <log>

*****************************************
Building overlap and Hamiltonian matrices
*****************************************

Among totally 30 optimized parameters, largest LM parameter change : 2.4824e-02 at parameter 20

******************************************************************************
Init Cost =   7.2850e-01    New Cost =   7.3062e-01  Delta Cost =   2.1186e-03
******************************************************************************

The new set of parameters is valid. Updating the trial wave function!

*****************************************************************************
Applying the update for shift_i =   1.0000e-02     and shift_s =   3.9062e-03
*****************************************************************************
  Execution time = 3.3946e+00
  </log>
  <optVariables href="Ne.log.s009.opt.xml">
uu_0 2.6613e-01 1 1  ON 0
uu_1 1.8810e-01 1 1  ON 1
uu_2 1.2610e-01 1 1  ON 2
uu_3 7.7982e-02 1 1  ON 3
uu_4 4.1552e-02 1 1  ON 4
uu_5 1.4855e-02 1 1  ON 5
uu_6 -3.4356e-03 1 1  ON 6
uu_7 -1.4911e-02 1 1  ON 7
uu_8 -1.8598e-02 1 1  ON 8
uu_9 -1.6830e-02 1 1  ON 9
ud_0 3.8048e-01 1 1  ON 10
ud_1 2.3932e-01 1 1  ON 11
ud_2 1.4779e-01 1 1  ON 12
ud_3 8.5074e-02 1 1  ON 13
ud_4 4.1291e-02 1 1  ON 14
ud_5 1.1111e-02 1 1  ON 15
ud_6 -8.6856e-03 1 1  ON 16
ud_7 -1.9736e-02 1 1  ON 17
ud_8 -2.2101e-02 1 1  ON 18
ud_9 -1.8553e-02 1 1  ON 19
eNe_0 -7.8950e-01 1 1  ON 20
eNe_1 -6.9359e-01 1 1  ON 21
eNe_2 -4.9749e-01 1 1  ON 22
eNe_3 -2.8767e-01 1 1  ON 23
eNe_4 -1.0811e-01 1 1  ON 24
eNe_5 2.8368e-02 1 1  ON 25
eNe_6 1.1700e-01 1 1  ON 26
eNe_7 1.5888e-01 1 1  ON 27
eNe_8 1.4877e-01 1 1  ON 28
eNe_9 1.1030e-01 1 1  ON 29
  </optVariables>
   Restore the number of walkers to 1, removing 0 walkers.
</opt>
</optimization-report>
  QMC Execution time = 3.4042e+00 secs
  Reusing QMCFixedSampleLinearOptimize
 Using QMCCostFunction::QMCCostFunction

=========================================================
  Start QMCFixedSampleLinearOptimize
  File Root Ne.log.s010 append = no 
=========================================================
  Skip QMCDriver::putQMCInfo 
  Resetting Properties of the walkers 1 x 13

=========================================================
  Start VMC
  File Root Ne.log.s010 append = no 
=========================================================
Using existing walkers 
  Resetting Properties of the walkers 1 x 13

<vmc function="put">
  qmc_counter=4  my_counter=9
  time step      = 1.5000e-01
  blocks         = 200
  steps          = 2
  substeps       = 5
  current        = 0
  target samples = 2.5600e+05
  walkers/mpi    = 1

  stepsbetweensamples = 1
<parameter name="blocks" condition="int">200</parameter>
<parameter name="blocks_between_recompute" condition="int">0</parameter>
<parameter name="check_properties" condition="int">100</parameter>
<parameter name="checkproperties" condition="int">100</parameter>
<parameter name="current" condition="int">0</parameter>
<parameter name="dmcwalkersperthread" condition="real">2.5000e+02</parameter>
<parameter name="maxcpusecs" condition="real">3.6000e+05</parameter>
<parameter name="record_configs" condition="int">0</parameter>
<parameter name="record_walkers" condition="int">1</parameter>
<parameter name="recordconfigs" condition="int">0</parameter>
<parameter name="recordwalkers" condition="int">1</parameter>
<parameter name="rewind" condition="int">0</parameter>
<parameter name="samples" condition="real">2.5600e+05</parameter>
<parameter name="samplesperthread" condition="real">2.5000e+02</parameter>
<parameter name="steps" condition="int">2</parameter>
<parameter name="stepsbetweensamples" condition="int">1</parameter>
<parameter name="store_configs" condition="int">0</parameter>
<parameter name="storeconfigs" condition="int">0</parameter>
<parameter name="sub_steps" condition="int">5</parameter>
<parameter name="substeps" condition="int">5</parameter>
<parameter name="tau" condition="au">1.5000e-01</parameter>
<parameter name="time_step" condition="au">1.5000e-01</parameter>
<parameter name="timestep" condition="au">1.5000e-01</parameter>
<parameter name="use_drift" condition="string">no</parameter>
<parameter name="usedrift" condition="string">no</parameter>
<parameter name="walkers" condition="int">1</parameter>
<parameter name="warmup_steps" condition="int">0</parameter>
<parameter name="warmupsteps" condition="int">0</parameter>
  DumpConfig==false Nothing (configurations, state) will be saved.
  Walker Samples are dumped every 1 steps.
</vmc>
  EstimatorManagerBase::add replace LocalEnergy estimator.
  EstimatorManagerBase::add replace LocalEnergy estimator.
<optimization-report>
<vmc stage="main" blocks="200">
  Cannot make clones again. Use existing 1 clones
  Initial partition of walkers 0 1 
  Using Particle by Particle moves
  Walker moves without drift
  Total Sample Size   =256000
  Walker distribution on root = 0 1 
  Using Locality Approximation
===== Memory Usage after the buffer registration =====
Available memory on node 0, free + buffers : 82376 MB
Memory footprint by rank 0 on node 0       : 89 MB
==================================================
====================================================
  SimpleFixedNodeBranch::finalize after a VMC block
    QMC counter        = 10
    time step          = 0.15
    reference energy   = -34.9612
    reference variance = 0.665261
====================================================
  Execution time = 2.1998e+00
</vmc>
<opt stage="setup">
  <log>
   Reading configurations from h5FileRoot Ne.log.s010
  QMCCostFunction is created with 1 threads.
  Using Nonlocal PP in Opt: NonLocalECP
   Number of samples loaded to each thread : 250 
  VMC Eavg = -3.4987e+01
  VMC Evar = 7.2044e-01
  Total weights = 2.5600e+05
  Execution time = 7.8735e-01
  </log>
</opt>
<opt stage="main" walkers="256000">
  <log>

*****************************************
Building overlap and Hamiltonian matrices
*****************************************

Among totally 30 optimized parameters, largest LM parameter change : 2.0087e-02 at parameter 26

******************************************************************************
Init Cost =   7.2044e-01    New Cost =   7.1850e-01  Delta Cost =  -1.9426e-03
******************************************************************************

The new set of parameters is valid. Updating the trial wave function!

*****************************************************************************
Applying the update for shift_i =   1.0000e-02     and shift_s =   3.9062e-03
*****************************************************************************
  Execution time = 3.5942e+00
  </log>
  <optVariables href="Ne.log.s010.opt.xml">
uu_0 2.6791e-01 1 1  ON 0
uu_1 1.8962e-01 1 1  ON 1
uu_2 1.2755e-01 1 1  ON 2
uu_3 7.9445e-02 1 1  ON 3
uu_4 4.3192e-02 1 1  ON 4
uu_5 1.6833e-02 1 1  ON 5
uu_6 -1.6031e-03 1 1  ON 6
uu_7 -1.2754e-02 1 1  ON 7
uu_8 -1.6572e-02 1 1  ON 8
uu_9 -1.5165e-02 1 1  ON 9
ud_0 3.7828e-01 1 1  ON 10
ud_1 2.3745e-01 1 1  ON 11
ud_2 1.4590e-01 1 1  ON 12
ud_3 8.3323e-02 1 1  ON 13
ud_4 3.9558e-02 1 1  ON 14
ud_5 9.6220e-03 1 1  ON 15
ud_6 -1.0038e-02 1 1  ON 16
ud_7 -2.0777e-02 1 1  ON 17
ud_8 -2.3040e-02 1 1  ON 18
ud_9 -1.9394e-02 1 1  ON 19
eNe_0 -8.0657e-01 1 1  ON 20
eNe_1 -7.1065e-01 1 1  ON 21
eNe_2 -5.1544e-01 1 1  ON 22
eNe_3 -3.0619e-01 1 1  ON 23
eNe_4 -1.2747e-01 1 1  ON 24
eNe_5 8.6002e-03 1 1  ON 25
eNe_6 9.6916e-02 1 1  ON 26
eNe_7 1.4152e-01 1 1  ON 27
eNe_8 1.3905e-01 1 1  ON 28
eNe_9 1.0526e-01 1 1  ON 29
  </optVariables>
   Restore the number of walkers to 1, removing 0 walkers.
</opt>
</optimization-report>
  QMC Execution time = 3.6033e+00 secs
Loop execution max-interations = 10
  Reusing QMCFixedSampleLinearOptimize
 Using QMCCostFunction::QMCCostFunction

=========================================================
  Start QMCFixedSampleLinearOptimize
  File Root Ne.log.s011 append = no 
=========================================================
  Skip QMCDriver::putQMCInfo 
  Resetting Properties of the walkers 1 x 13

=========================================================
  Start VMC
  File Root Ne.log.s011 append = no 
=========================================================
  Using the current 1 walkers.
  Total number of walkers: 1.0240e+03
  Total weight: 1.0240e+03
  Resetting Properties of the walkers 1 x 13

<vmc function="put">
  qmc_counter=0  my_counter=10
  time step      = 1.5000e-01
  blocks         = 200
  steps          = 3
  substeps       = 5
  current        = 0
  target samples = 5.1200e+05
  walkers/mpi    = 1

  stepsbetweensamples = 1
<parameter name="blocks" condition="int">200</parameter>
<parameter name="blocks_between_recompute" condition="int">0</parameter>
<parameter name="check_properties" condition="int">100</parameter>
<parameter name="checkproperties" condition="int">100</parameter>
<parameter name="current" condition="int">0</parameter>
<parameter name="dmcwalkersperthread" condition="real">5.0000e+02</parameter>
<parameter name="maxcpusecs" condition="real">3.6000e+05</parameter>
<parameter name="record_configs" condition="int">0</parameter>
<parameter name="record_walkers" condition="int">1</parameter>
<parameter name="recordconfigs" condition="int">0</parameter>
<parameter name="recordwalkers" condition="int">1</parameter>
<parameter name="rewind" condition="int">0</parameter>
<parameter name="samples" condition="real">5.1200e+05</parameter>
<parameter name="samplesperthread" condition="real">5.0000e+02</parameter>
<parameter name="steps" condition="int">3</parameter>
<parameter name="stepsbetweensamples" condition="int">1</parameter>
<parameter name="store_configs" condition="int">0</parameter>
<parameter name="storeconfigs" condition="int">0</parameter>
<parameter name="sub_steps" condition="int">5</parameter>
<parameter name="substeps" condition="int">5</parameter>
<parameter name="tau" condition="au">1.5000e-01</parameter>
<parameter name="time_step" condition="au">1.5000e-01</parameter>
<parameter name="timestep" condition="au">1.5000e-01</parameter>
<parameter name="use_drift" condition="string">no</parameter>
<parameter name="usedrift" condition="string">no</parameter>
<parameter name="walkers" condition="int">1</parameter>
<parameter name="warmup_steps" condition="int">0</parameter>
<parameter name="warmupsteps" condition="int">0</parameter>
  DumpConfig==false Nothing (configurations, state) will be saved.
  Walker Samples are dumped every 1 steps.
</vmc>
  EstimatorManagerBase::add replace LocalEnergy estimator.
  EstimatorManagerBase::add replace LocalEnergy estimator.
<optimization-report>
<vmc stage="main" blocks="200">
  Cannot make clones again. Use existing 1 clones
  Initial partition of walkers 0 1 
  Using Particle by Particle moves
  Walker moves without drift
  Total Sample Size   =512000
  Walker distribution on root = 0 1 
  Using Locality Approximation
===== Memory Usage after the buffer registration =====
Available memory on node 0, free + buffers : 82374 MB
Memory footprint by rank 0 on node 0       : 90 MB
==================================================
====================================================
  SimpleFixedNodeBranch::finalize after a VMC block
    QMC counter        = 11
    time step          = 0.15
    reference energy   = -35.0152
    reference variance = 0.633492
====================================================
  Execution time = 2.7448e+00
</vmc>
<opt stage="setup">
  <log>
   Reading configurations from h5FileRoot Ne.log.s011
  QMCCostFunction is created with 1 threads.
  Using Nonlocal PP in Opt: NonLocalECP
   Number of samples loaded to each thread : 500 
  VMC Eavg = -3.4989e+01
  VMC Evar = 7.2725e-01
  Total weights = 5.1200e+05
  Execution time = 1.1652e+00
  </log>
</opt>
<opt stage="main" walkers="512000">
  <log>

*****************************************
Building overlap and Hamiltonian matrices
*****************************************

Among totally 30 optimized parameters, largest LM parameter change : 1.4813e-02 at parameter 25

******************************************************************************
Init Cost =  -3.3204e+01    New Cost =  -3.3204e+01  Delta Cost =  -1.0115e-04
******************************************************************************

The new set of parameters is valid. Updating the trial wave function!

*****************************************************************************
Applying the update for shift_i =   1.0000e-02     and shift_s =   3.9062e-03
*****************************************************************************
  Execution time = 5.0852e+00
  </log>
  <optVariables href="Ne.log.s011.opt.xml">
uu_0 2.6801e-01 1 1  ON 0
uu_1 1.9013e-01 1 1  ON 1
uu_2 1.2809e-01 1 1  ON 2
uu_3 8.0029e-02 1 1  ON 3
uu_4 4.3712e-02 1 1  ON 4
uu_5 1.7080e-02 1 1  ON 5
uu_6 -1.1985e-03 1 1  ON 6
uu_7 -1.2405e-02 1 1  ON 7
uu_8 -1.5875e-02 1 1  ON 8
uu_9 -1.4566e-02 1 1  ON 9
ud_0 3.8205e-01 1 1  ON 10
ud_1 2.4076e-01 1 1  ON 11
ud_2 1.4939e-01 1 1  ON 12
ud_3 8.6845e-02 1 1  ON 13
ud_4 4.3082e-02 1 1  ON 14
ud_5 1.2825e-02 1 1  ON 15
ud_6 -6.7530e-03 1 1  ON 16
ud_7 -1.7634e-02 1 1  ON 17
ud_8 -2.0433e-02 1 1  ON 18
ud_9 -1.7570e-02 1 1  ON 19
eNe_0 -8.2005e-01 1 1  ON 20
eNe_1 -7.2389e-01 1 1  ON 21
eNe_2 -5.2859e-01 1 1  ON 22
eNe_3 -3.1927e-01 1 1  ON 23
eNe_4 -1.4080e-01 1 1  ON 24
eNe_5 -6.2124e-03 1 1  ON 25
eNe_6 8.2584e-02 1 1  ON 26
eNe_7 1.2691e-01 1 1  ON 27
eNe_8 1.2489e-01 1 1  ON 28
eNe_9 9.5258e-02 1 1  ON 29
  </optVariables>
   Restore the number of walkers to 1, removing 0 walkers.
</opt>
</optimization-report>
  QMC Execution time = 5.0945e+00 secs
  Reusing QMCFixedSampleLinearOptimize
 Using QMCCostFunction::QMCCostFunction

=========================================================
  Start QMCFixedSampleLinearOptimize
  File Root Ne.log.s012 append = no 
=========================================================
  Skip QMCDriver::putQMCInfo 
  Resetting Properties of the walkers 1 x 13

=========================================================
  Start VMC
  File Root Ne.log.s012 append = no 
=========================================================
Using existing walkers 
  Resetting Properties of the walkers 1 x 13

<vmc function="put">
  qmc_counter=1  my_counter=11
  time step      = 1.5000e-01
  blocks         = 200
  steps          = 3
  substeps       = 5
  current        = 0
  target samples = 5.1200e+05
  walkers/mpi    = 1

  stepsbetweensamples = 1
<parameter name="blocks" condition="int">200</parameter>
<parameter name="blocks_between_recompute" condition="int">0</parameter>
<parameter name="check_properties" condition="int">100</parameter>
<parameter name="checkproperties" condition="int">100</parameter>
<parameter name="current" condition="int">0</parameter>
<parameter name="dmcwalkersperthread" condition="real">5.0000e+02</parameter>
<parameter name="maxcpusecs" condition="real">3.6000e+05</parameter>
<parameter name="record_configs" condition="int">0</parameter>
<parameter name="record_walkers" condition="int">1</parameter>
<parameter name="recordconfigs" condition="int">0</parameter>
<parameter name="recordwalkers" condition="int">1</parameter>
<parameter name="rewind" condition="int">0</parameter>
<parameter name="samples" condition="real">5.1200e+05</parameter>
<parameter name="samplesperthread" condition="real">5.0000e+02</parameter>
<parameter name="steps" condition="int">3</parameter>
<parameter name="stepsbetweensamples" condition="int">1</parameter>
<parameter name="store_configs" condition="int">0</parameter>
<parameter name="storeconfigs" condition="int">0</parameter>
<parameter name="sub_steps" condition="int">5</parameter>
<parameter name="substeps" condition="int">5</parameter>
<parameter name="tau" condition="au">1.5000e-01</parameter>
<parameter name="time_step" condition="au">1.5000e-01</parameter>
<parameter name="timestep" condition="au">1.5000e-01</parameter>
<parameter name="use_drift" condition="string">no</parameter>
<parameter name="usedrift" condition="string">no</parameter>
<parameter name="walkers" condition="int">1</parameter>
<parameter name="warmup_steps" condition="int">0</parameter>
<parameter name="warmupsteps" condition="int">0</parameter>
  DumpConfig==false Nothing (configurations, state) will be saved.
  Walker Samples are dumped every 1 steps.
</vmc>
  EstimatorManagerBase::add replace LocalEnergy estimator.
  EstimatorManagerBase::add replace LocalEnergy estimator.
<optimization-report>
<vmc stage="main" blocks="200">
  Cannot make clones again. Use existing 1 clones
  Initial partition of walkers 0 1 
  Using Particle by Particle moves
  Walker moves without drift
  Total Sample Size   =512000
  Walker distribution on root = 0 1 
  Using Locality Approximation
===== Memory Usage after the buffer registration =====
Available memory on node 0, free + buffers : 82341 MB
Memory footprint by rank 0 on node 0       : 93 MB
==================================================
====================================================
  SimpleFixedNodeBranch::finalize after a VMC block
    QMC counter        = 12
    time step          = 0.15
    reference energy   = -34.9864
[...]
</vmc>
<opt stage="setup">
  <log>
   Reading configurations from h5FileRoot Ne.log.s017
  QMCCostFunction is created with 1 threads.
  Using Nonlocal PP in Opt: NonLocalECP
   Number of samples loaded to each thread : 500 
  VMC Eavg = -3.4989e+01
  VMC Evar = 7.3555e-01
  Total weights = 5.1200e+05
  Execution time = 1.1230e+00
  </log>
</opt>
<opt stage="main" walkers="512000">
  <log>

*****************************************
Building overlap and Hamiltonian matrices
*****************************************

Among totally 30 optimized parameters, largest LM parameter change : 9.5049e-03 at parameter 20

******************************************************************************
Init Cost =  -3.3202e+01    New Cost =  -3.3203e+01  Delta Cost =  -1.0394e-04
******************************************************************************

The new set of parameters is valid. Updating the trial wave function!

*****************************************************************************
Applying the update for shift_i =   1.0000e-02     and shift_s =   3.9062e-03
*****************************************************************************
  Execution time = 4.9956e+00
  </log>
  <optVariables href="Ne.log.s017.opt.xml">
uu_0 2.7480e-01 1 1  ON 0
uu_1 1.9742e-01 1 1  ON 1
uu_2 1.3534e-01 1 1  ON 2
uu_3 8.7101e-02 1 1  ON 3
uu_4 5.0534e-02 1 1  ON 4
uu_5 2.3749e-02 1 1  ON 5
uu_6 5.1997e-03 1 1  ON 6
uu_7 -6.2929e-03 1 1  ON 7
uu_8 -1.1167e-02 1 1  ON 8
uu_9 -1.1346e-02 1 1  ON 9
ud_0 3.8987e-01 1 1  ON 10
ud_1 2.4892e-01 1 1  ON 11
ud_2 1.5737e-01 1 1  ON 12
ud_3 9.4539e-02 1 1  ON 13
ud_4 5.0255e-02 1 1  ON 14
ud_5 1.9602e-02 1 1  ON 15
ud_6 -5.4691e-04 1 1  ON 16
ud_7 -1.2146e-02 1 1  ON 17
ud_8 -1.5965e-02 1 1  ON 18
ud_9 -1.4483e-02 1 1  ON 19
eNe_0 -8.7395e-01 1 1  ON 20
eNe_1 -7.7749e-01 1 1  ON 21
eNe_2 -5.8086e-01 1 1  ON 22
eNe_3 -3.6968e-01 1 1  ON 23
eNe_4 -1.8892e-01 1 1  ON 24
eNe_5 -5.1647e-02 1 1  ON 25
eNe_6 4.0581e-02 1 1  ON 26
eNe_7 8.9263e-02 1 1  ON 27
eNe_8 9.5952e-02 1 1  ON 28
eNe_9 7.5832e-02 1 1  ON 29
  </optVariables>
   Restore the number of walkers to 1, removing 0 walkers.
</opt>
</optimization-report>
  QMC Execution time = 5.0053e+00 secs
  Reusing QMCFixedSampleLinearOptimize
 Using QMCCostFunction::QMCCostFunction

=========================================================
  Start QMCFixedSampleLinearOptimize
  File Root Ne.log.s018 append = no 
=========================================================
  Skip QMCDriver::putQMCInfo 
  Resetting Properties of the walkers 1 x 13

=========================================================
  Start VMC
  File Root Ne.log.s018 append = no 
=========================================================
Using existing walkers 
  Resetting Properties of the walkers 1 x 13

<vmc function="put">
  qmc_counter=7  my_counter=17
  time step      = 1.5000e-01
  blocks         = 200
  steps          = 3
  substeps       = 5
  current        = 0
  target samples = 5.1200e+05
  walkers/mpi    = 1

  stepsbetweensamples = 1
<parameter name="blocks" condition="int">200</parameter>
<parameter name="blocks_between_recompute" condition="int">0</parameter>
<parameter name="check_properties" condition="int">100</parameter>
<parameter name="checkproperties" condition="int">100</parameter>
<parameter name="current" condition="int">0</parameter>
<parameter name="dmcwalkersperthread" condition="real">5.0000e+02</parameter>
<parameter name="maxcpusecs" condition="real">3.6000e+05</parameter>
<parameter name="record_configs" condition="int">0</parameter>
<parameter name="record_walkers" condition="int">1</parameter>
<parameter name="recordconfigs" condition="int">0</parameter>
<parameter name="recordwalkers" condition="int">1</parameter>
<parameter name="rewind" condition="int">0</parameter>
<parameter name="samples" condition="real">5.1200e+05</parameter>
<parameter name="samplesperthread" condition="real">5.0000e+02</parameter>
<parameter name="steps" condition="int">3</parameter>
<parameter name="stepsbetweensamples" condition="int">1</parameter>
<parameter name="store_configs" condition="int">0</parameter>
<parameter name="storeconfigs" condition="int">0</parameter>
<parameter name="sub_steps" condition="int">5</parameter>
<parameter name="substeps" condition="int">5</parameter>
<parameter name="tau" condition="au">1.5000e-01</parameter>
<parameter name="time_step" condition="au">1.5000e-01</parameter>
<parameter name="timestep" condition="au">1.5000e-01</parameter>
<parameter name="use_drift" condition="string">no</parameter>
<parameter name="usedrift" condition="string">no</parameter>
<parameter name="walkers" condition="int">1</parameter>
<parameter name="warmup_steps" condition="int">0</parameter>
<parameter name="warmupsteps" condition="int">0</parameter>
  DumpConfig==false Nothing (configurations, state) will be saved.
  Walker Samples are dumped every 1 steps.
</vmc>
  EstimatorManagerBase::add replace LocalEnergy estimator.
  EstimatorManagerBase::add replace LocalEnergy estimator.
<optimization-report>
<vmc stage="main" blocks="200">
  Cannot make clones again. Use existing 1 clones
  Initial partition of walkers 0 1 
  Using Particle by Particle moves
  Walker moves without drift
  Total Sample Size   =512000
  Walker distribution on root = 0 1 
  Using Locality Approximation
===== Memory Usage after the buffer registration =====
Available memory on node 0, free + buffers : 82323 MB
Memory footprint by rank 0 on node 0       : 103 MB
==================================================
====================================================
  SimpleFixedNodeBranch::finalize after a VMC block
    QMC counter        = 18
    time step          = 0.15
    reference energy   = -35.0102
    reference variance = 0.664709
====================================================
  Execution time = 2.6971e+00
</vmc>
<opt stage="setup">
  <log>
   Reading configurations from h5FileRoot Ne.log.s018
  QMCCostFunction is created with 1 threads.
  Using Nonlocal PP in Opt: NonLocalECP
   Number of samples loaded to each thread : 500 
  VMC Eavg = -3.4985e+01
  VMC Evar = 7.3806e-01
  Total weights = 5.1200e+05
  Execution time = 1.1203e+00
  </log>
</opt>
<opt stage="main" walkers="512000">
  <log>

*****************************************
Building overlap and Hamiltonian matrices
*****************************************

Among totally 30 optimized parameters, largest LM parameter change : 1.1087e-02 at parameter 23

******************************************************************************
Init Cost =  -3.3199e+01    New Cost =  -3.3199e+01  Delta Cost =   3.0863e-05
******************************************************************************

The new set of parameters is valid. Updating the trial wave function!

*****************************************************************************
Applying the update for shift_i =   1.0000e-02     and shift_s =   3.9062e-03
*****************************************************************************
  Execution time = 4.9261e+00
  </log>
  <optVariables href="Ne.log.s018.opt.xml">
uu_0 2.7452e-01 1 1  ON 0
uu_1 1.9647e-01 1 1  ON 1
uu_2 1.3446e-01 1 1  ON 2
uu_3 8.6455e-02 1 1  ON 3
uu_4 5.0130e-02 1 1  ON 4
uu_5 2.3588e-02 1 1  ON 5
uu_6 5.2087e-03 1 1  ON 6
uu_7 -6.1046e-03 1 1  ON 7
uu_8 -1.0875e-02 1 1  ON 8
uu_9 -1.1106e-02 1 1  ON 9
ud_0 3.8972e-01 1 1  ON 10
ud_1 2.4845e-01 1 1  ON 11
ud_2 1.5678e-01 1 1  ON 12
ud_3 9.3840e-02 1 1  ON 13
ud_4 4.9593e-02 1 1  ON 14
ud_5 1.8819e-02 1 1  ON 15
ud_6 -1.4092e-03 1 1  ON 16
ud_7 -1.3177e-02 1 1  ON 17
ud_8 -1.6895e-02 1 1  ON 18
ud_9 -1.5194e-02 1 1  ON 19
eNe_0 -8.8431e-01 1 1  ON 20
eNe_1 -7.8830e-01 1 1  ON 21
eNe_2 -5.9160e-01 1 1  ON 22
eNe_3 -3.8077e-01 1 1  ON 23
eNe_4 -1.9966e-01 1 1  ON 24
eNe_5 -6.1210e-02 1 1  ON 25
eNe_6 3.2226e-02 1 1  ON 26
eNe_7 8.2571e-02 1 1  ON 27
eNe_8 8.9185e-02 1 1  ON 28
eNe_9 7.1601e-02 1 1  ON 29
  </optVariables>
   Restore the number of walkers to 1, removing 0 walkers.
</opt>
</optimization-report>
  QMC Execution time = 4.9354e+00 secs
  Reusing QMCFixedSampleLinearOptimize
 Using QMCCostFunction::QMCCostFunction

=========================================================
  Start QMCFixedSampleLinearOptimize
  File Root Ne.log.s019 append = no 
=========================================================
  Skip QMCDriver::putQMCInfo 
  Resetting Properties of the walkers 1 x 13

=========================================================
  Start VMC
  File Root Ne.log.s019 append = no 
=========================================================
Using existing walkers 
  Resetting Properties of the walkers 1 x 13

<vmc function="put">
  qmc_counter=8  my_counter=18
  time step      = 1.5000e-01
  blocks         = 200
  steps          = 3
  substeps       = 5
  current        = 0
  target samples = 5.1200e+05
  walkers/mpi    = 1

  stepsbetweensamples = 1
<parameter name="blocks" condition="int">200</parameter>
<parameter name="blocks_between_recompute" condition="int">0</parameter>
<parameter name="check_properties" condition="int">100</parameter>
<parameter name="checkproperties" condition="int">100</parameter>
<parameter name="current" condition="int">0</parameter>
<parameter name="dmcwalkersperthread" condition="real">5.0000e+02</parameter>
<parameter name="maxcpusecs" condition="real">3.6000e+05</parameter>
<parameter name="record_configs" condition="int">0</parameter>
<parameter name="record_walkers" condition="int">1</parameter>
<parameter name="recordconfigs" condition="int">0</parameter>
<parameter name="recordwalkers" condition="int">1</parameter>
<parameter name="rewind" condition="int">0</parameter>
<parameter name="samples" condition="real">5.1200e+05</parameter>
<parameter name="samplesperthread" condition="real">5.0000e+02</parameter>
<parameter name="steps" condition="int">3</parameter>
<parameter name="stepsbetweensamples" condition="int">1</parameter>
<parameter name="store_configs" condition="int">0</parameter>
<parameter name="storeconfigs" condition="int">0</parameter>
<parameter name="sub_steps" condition="int">5</parameter>
<parameter name="substeps" condition="int">5</parameter>
<parameter name="tau" condition="au">1.5000e-01</parameter>
<parameter name="time_step" condition="au">1.5000e-01</parameter>
<parameter name="timestep" condition="au">1.5000e-01</parameter>
<parameter name="use_drift" condition="string">no</parameter>
<parameter name="usedrift" condition="string">no</parameter>
<parameter name="walkers" condition="int">1</parameter>
<parameter name="warmup_steps" condition="int">0</parameter>
<parameter name="warmupsteps" condition="int">0</parameter>
  DumpConfig==false Nothing (configurations, state) will be saved.
  Walker Samples are dumped every 1 steps.
</vmc>
  EstimatorManagerBase::add replace LocalEnergy estimator.
  EstimatorManagerBase::add replace LocalEnergy estimator.
<optimization-report>
<vmc stage="main" blocks="200">
  Cannot make clones again. Use existing 1 clones
  Initial partition of walkers 0 1 
  Using Particle by Particle moves
  Walker moves without drift
  Total Sample Size   =512000
  Walker distribution on root = 0 1 
  Using Locality Approximation
===== Memory Usage after the buffer registration =====
Available memory on node 0, free + buffers : 82321 MB
Memory footprint by rank 0 on node 0       : 105 MB
==================================================
====================================================
  SimpleFixedNodeBranch::finalize after a VMC block
    QMC counter        = 19
    time step          = 0.15
    reference energy   = -35.011
    reference variance = 0.526355
====================================================
  Execution time = 2.7162e+00
</vmc>
<opt stage="setup">
  <log>
   Reading configurations from h5FileRoot Ne.log.s019
  QMCCostFunction is created with 1 threads.
  Using Nonlocal PP in Opt: NonLocalECP
   Number of samples loaded to each thread : 500 
  VMC Eavg = -3.4991e+01
  VMC Evar = 8.1468e-01
  Total weights = 5.1200e+05
  Execution time = 1.1324e+00
  </log>
</opt>
<opt stage="main" walkers="512000">
  <log>

*****************************************
Building overlap and Hamiltonian matrices
*****************************************

Among totally 30 optimized parameters, largest LM parameter change : 1.6387e+01 at parameter 0

******************************************************************************
Init Cost =  -3.3200e+01    New Cost =   3.7625e+04  Delta Cost =   3.7659e+04
******************************************************************************

The new set of parameters is not valid. Revert to the old set!

*****************************************************************************
Applying the update for shift_i =   1.0000e-02     and shift_s =   1.5625e-02
*****************************************************************************
  Execution time = 5.0070e+00
  </log>
  <optVariables href="Ne.log.s019.opt.xml">
uu_0 2.7452e-01 1 1  ON 0
uu_1 1.9647e-01 1 1  ON 1
uu_2 1.3446e-01 1 1  ON 2
uu_3 8.6455e-02 1 1  ON 3
uu_4 5.0130e-02 1 1  ON 4
uu_5 2.3588e-02 1 1  ON 5
uu_6 5.2087e-03 1 1  ON 6
uu_7 -6.1046e-03 1 1  ON 7
uu_8 -1.0875e-02 1 1  ON 8
uu_9 -1.1106e-02 1 1  ON 9
ud_0 3.8972e-01 1 1  ON 10
ud_1 2.4845e-01 1 1  ON 11
ud_2 1.5678e-01 1 1  ON 12
ud_3 9.3840e-02 1 1  ON 13
ud_4 4.9593e-02 1 1  ON 14
ud_5 1.8819e-02 1 1  ON 15
ud_6 -1.4092e-03 1 1  ON 16
ud_7 -1.3177e-02 1 1  ON 17
ud_8 -1.6895e-02 1 1  ON 18
ud_9 -1.5194e-02 1 1  ON 19
eNe_0 -8.8431e-01 1 1  ON 20
eNe_1 -7.8830e-01 1 1  ON 21
eNe_2 -5.9160e-01 1 1  ON 22
eNe_3 -3.8077e-01 1 1  ON 23
eNe_4 -1.9966e-01 1 1  ON 24
eNe_5 -6.1210e-02 1 1  ON 25
eNe_6 3.2226e-02 1 1  ON 26
eNe_7 8.2571e-02 1 1  ON 27
eNe_8 8.9185e-02 1 1  ON 28
eNe_9 7.1601e-02 1 1  ON 29
  </optVariables>
   Restore the number of walkers to 1, removing 0 walkers.
</opt>
</optimization-report>
  QMC Execution time = 5.0230e+00 secs
  Reusing QMCFixedSampleLinearOptimize
 Using QMCCostFunction::QMCCostFunction

=========================================================
  Start QMCFixedSampleLinearOptimize
  File Root Ne.log.s020 append = no 
=========================================================
  Skip QMCDriver::putQMCInfo 
  Resetting Properties of the walkers 1 x 13

=========================================================
  Start VMC
  File Root Ne.log.s020 append = no 
=========================================================
Using existing walkers 
  Resetting Properties of the walkers 1 x 13

<vmc function="put">
  qmc_counter=9  my_counter=19
  time step      = 1.5000e-01
  blocks         = 200
  steps          = 3
  substeps       = 5
  current        = 0
  target samples = 5.1200e+05
  walkers/mpi    = 1

  stepsbetweensamples = 1
<parameter name="blocks" condition="int">200</parameter>
<parameter name="blocks_between_recompute" condition="int">0</parameter>
<parameter name="check_properties" condition="int">100</parameter>
<parameter name="checkproperties" condition="int">100</parameter>
<parameter name="current" condition="int">0</parameter>
<parameter name="dmcwalkersperthread" condition="real">5.0000e+02</parameter>
<parameter name="maxcpusecs" condition="real">3.6000e+05</parameter>
<parameter name="record_configs" condition="int">0</parameter>
<parameter name="record_walkers" condition="int">1</parameter>
<parameter name="recordconfigs" condition="int">0</parameter>
<parameter name="recordwalkers" condition="int">1</parameter>
<parameter name="rewind" condition="int">0</parameter>
<parameter name="samples" condition="real">5.1200e+05</parameter>
<parameter name="samplesperthread" condition="real">5.0000e+02</parameter>
<parameter name="steps" condition="int">3</parameter>
<parameter name="stepsbetweensamples" condition="int">1</parameter>
<parameter name="store_configs" condition="int">0</parameter>
<parameter name="storeconfigs" condition="int">0</parameter>
<parameter name="sub_steps" condition="int">5</parameter>
<parameter name="substeps" condition="int">5</parameter>
<parameter name="tau" condition="au">1.5000e-01</parameter>
<parameter name="time_step" condition="au">1.5000e-01</parameter>
<parameter name="timestep" condition="au">1.5000e-01</parameter>
<parameter name="use_drift" condition="string">no</parameter>
<parameter name="usedrift" condition="string">no</parameter>
<parameter name="walkers" condition="int">1</parameter>
<parameter name="warmup_steps" condition="int">0</parameter>
<parameter name="warmupsteps" condition="int">0</parameter>
  DumpConfig==false Nothing (configurations, state) will be saved.
  Walker Samples are dumped every 1 steps.
</vmc>
  EstimatorManagerBase::add replace LocalEnergy estimator.
  EstimatorManagerBase::add replace LocalEnergy estimator.
<optimization-report>
<vmc stage="main" blocks="200">
  Cannot make clones again. Use existing 1 clones
  Initial partition of walkers 0 1 
  Using Particle by Particle moves
  Walker moves without drift
  Total Sample Size   =512000
  Walker distribution on root = 0 1 
  Using Locality Approximation
===== Memory Usage after the buffer registration =====
Available memory on node 0, free + buffers : 82318 MB
Memory footprint by rank 0 on node 0       : 107 MB
==================================================
====================================================
  SimpleFixedNodeBranch::finalize after a VMC block
    QMC counter        = 20
    time step          = 0.15
    reference energy   = -34.9726
    reference variance = 0.554632
====================================================
  Execution time = 2.9732e+00
</vmc>
<opt stage="setup">
  <log>
   Reading configurations from h5FileRoot Ne.log.s020
  QMCCostFunction is created with 1 threads.
  Using Nonlocal PP in Opt: NonLocalECP
   Number of samples loaded to each thread : 500 
  VMC Eavg = -3.4989e+01
  VMC Evar = 7.3993e-01
  Total weights = 5.1200e+05
  Execution time = 1.1362e+00
  </log>
</opt>
<opt stage="main" walkers="512000">
  <log>

*****************************************
Building overlap and Hamiltonian matrices
*****************************************

Among totally 30 optimized parameters, largest LM parameter change : 1.2184e-02 at parameter 20

******************************************************************************
Init Cost =  -3.3202e+01    New Cost =  -3.3202e+01  Delta Cost =  -2.5577e-05
******************************************************************************

The new set of parameters is valid. Updating the trial wave function!

*****************************************************************************
Applying the update for shift_i =   1.0000e-02     and shift_s =   3.9062e-03
*****************************************************************************
  Execution time = 5.2277e+00
  </log>
  <optVariables href="Ne.log.s020.opt.xml">
uu_0 2.7708e-01 1 1  ON 0
uu_1 1.9918e-01 1 1  ON 1
uu_2 1.3702e-01 1 1  ON 2
uu_3 8.8892e-02 1 1  ON 3
uu_4 5.2490e-02 1 1  ON 4
uu_5 2.5526e-02 1 1  ON 5
uu_6 6.7443e-03 1 1  ON 6
uu_7 -5.1688e-03 1 1  ON 7
uu_8 -1.0299e-02 1 1  ON 8
uu_9 -1.0602e-02 1 1  ON 9
ud_0 3.8990e-01 1 1  ON 10
ud_1 2.4839e-01 1 1  ON 11
ud_2 1.5692e-01 1 1  ON 12
ud_3 9.4024e-02 1 1  ON 13
ud_4 4.9789e-02 1 1  ON 14
ud_5 1.8988e-02 1 1  ON 15
ud_6 -1.4441e-03 1 1  ON 16
ud_7 -1.3392e-02 1 1  ON 17
ud_8 -1.7187e-02 1 1  ON 18
ud_9 -1.5107e-02 1 1  ON 19
eNe_0 -8.9649e-01 1 1  ON 20
eNe_1 -8.0008e-01 1 1  ON 21
eNe_2 -6.0340e-01 1 1  ON 22
eNe_3 -3.9203e-01 1 1  ON 23
eNe_4 -2.0982e-01 1 1  ON 24
eNe_5 -6.9465e-02 1 1  ON 25
eNe_6 2.5333e-02 1 1  ON 26
eNe_7 7.6409e-02 1 1  ON 27
eNe_8 8.4260e-02 1 1  ON 28
eNe_9 6.6481e-02 1 1  ON 29
  </optVariables>
   Restore the number of walkers to 1, removing 0 walkers.
</opt>
</optimization-report>
  QMC Execution time = 5.2364e+00 secs
  Total Execution time = 8.4919e+01 secs

=========================================================
  A new xml input file : Ne.log.s020.cont.xml
TACC:  Shutdown complete. Exiting. 
