
 Primary working directories    : /global/cscratch1/sd/aannabe
 Secondary working directories  : /global/cscratch1/sd/aannabe
 Wavefunction directory         : /global/homes/a/aannabe/wfu/
 Main file repository           : /global/cscratch1/sd/aannabe/

 SHA1      : 2873118e99aab1bc19f5b6fc1784693c06d15c95
 NAME      : 2015.1.8
 ARCHNAME  : linux/x86_64
 FC        : /opt/cray/pe/craype/2.5.5/bin/ftn
 BLASLIB   : -Wl,-_start-group /opt/intel/compilers_and_libraries_2016.3.210/linux/mkl/lib/intel64/libmkl_intel_ilp64.a /opt/intel/compilers_and_libraries_2016.3.210/linux/mkl/lib/intel64/libmkl_intel_thread.a /opt/intel/compilers_and_libraries_2016.3.210/linux/mkl/lib/intel64/libmkl_core.a -Wl,-_end-group
 id        : lbl

 Nodes     nprocs
 nid12805     1

 Using customized tuning parameters: mindgm=8; mindgv=16; mindgc=4; mindgr=1; noblas=0; minvec=7
 default implementation of scratch files=df  

 ***,Fe
 memory,512,m
 gthresh,twoint=1.e-12
 
 gprint,basis,orbitals
 gexpec,ekin,pot
 
 angstrom
 geometry={
 1                                                                               ! Number of atoms
 Fe 0.0 0.0 0.0
 }
 
 basis={
 Including file /global/homes/a/aannabe/docs/totals_stu_d2h/pps/Fe.pp
 Including file /global/homes/a/aannabe/docs/totals_stu_d2h/basis/unc-aug-cc-pwCVnZ/Fe_tz.basis
 }
 
 {hf
 wf,16,1,4
 occ,4,1,1,1,1,1,1,0
 open,4.1,1.4,1.6,1.7
 sym,1,1,1,3
 }
 scf(i)=energy
 
 _CC_NORM_MAX=2.0
 {ci
 maxit,100
 core
 }
 posthf(i)=energy
 
 table,scf,posthf,ekin,pot
 save,3.csv,new
 
 

 Variables initialized (889), CPU time= 0.00 sec
 Commands  initialized (702), CPU time= 0.01 sec, 572 directives.
 Default parameters read. Elapsed time= 0.10 sec

 Checking input...
 Passed
1


                                         ***  PROGRAM SYSTEM MOLPRO  ***
                                       Copyright, TTI GmbH Stuttgart, 2015
                                    Version 2015.1 linked Sep  7 2016 23:09:38


 **********************************************************************************************************************************
 LABEL *   Fe                                                                            
  64 bit serial version                                                                  DATE: 04-Oct-18          TIME: 14:39:54  
 **********************************************************************************************************************************

 SHA1:             2873118e99aab1bc19f5b6fc1784693c06d15c95
 **********************************************************************************************************************************

 THRESHOLDS:

 ZERO    =  1.00D-12  ONEINT  =  1.00D-12  TWOINT  =  1.00D-12  PREFAC  =  1.00D-14  LOCALI  =  1.00D-09  EORDER  =  1.00D-04
 ENERGY  =  0.00D+00  ETEST   =  0.00D+00  EDENS   =  0.00D+00  THRDEDEF=  1.00D-06  GRADIENT=  1.00D-02  STEP    =  1.00D-03
 ORBITAL =  1.00D-05  CIVEC   =  1.00D-05  COEFF   =  1.00D-04  PRINTCI =  5.00D-02  PUNCHCI =  9.90D+01  OPTGRAD =  3.00D-04
 OPTENERG=  1.00D-06  OPTSTEP =  3.00D-04  THRGRAD =  1.00D-10  COMPRESS=  1.00D-11  VARMIN  =  1.00D-07  VARMAX  =  1.00D-03
 THRDOUB =  0.00D+00  THRDIV  =  1.00D-05  THRRED  =  1.00D-07  THRPSP  =  1.00D+00  THRDC   =  1.00D-10  THRCS   =  1.00D-10
 THRNRM  =  1.00D-08  THREQ   =  0.00D+00  THRDE   =  1.00D+00  THRREF  =  1.00D-05  SPARFAC =  1.00D+00  THRDLP  =  1.00D-07
 THRDIA  =  1.00D-10  THRDLS  =  1.00D-07  THRGPS  =  0.00D+00  THRKEX  =  0.00D+00  THRDIS  =  2.00D-01  THRVAR  =  1.00D-10
 THRLOC  =  1.00D-06  THRGAP  =  1.00D-06  THRLOCT = -1.00D+00  THRGAPT = -1.00D+00  THRORB  =  1.00D-06  THRMLTP =  0.00D+00
 THRCPQCI=  1.00D-10  KEXTA   =  0.00D+00  THRCOARS=  0.00D+00  SYMTOL  =  1.00D-06  GRADTOL =  1.00D-06  THROVL  =  1.00D-08
 THRORTH =  1.00D-08  GRID    =  1.00D-06  GRIDMAX =  1.00D-03  DTMAX   =  0.00D+00  THROCCDE=  1.00D-01  THROCCDE=  1.00D-01



 ZUNIT=ANG
 

Geometry recognized as XYZ


 Variable memory set to  512000000 words,  buffer space   230000 words

 SETTING BASIS          =    USERDEF


 Recomputing integrals since basis changed


 Using spherical harmonics



 PROGRAM * SEWARD (Integral evaluation for generally contracted gaussian basis sets)     Author: Roland Lindh, 1990

 Geometry written to block  1 of record 700

 Orientation using atomic masses  
 Molecule type: Atom
 Symmetry elements: X,Y,Z
 Rotational constants:       0.0000000      0.0000000      0.0000000 GHz  (calculated with average atomic masses)

 Point group  D2h 



 ATOMIC COORDINATES

 NR  ATOM    CHARGE       X              Y              Z

   1  FE     16.00    0.000000000    0.000000000    0.000000000


          FE  CORE POTENTIAL

          f POTENTIAL

 POWERS             2
 EXPONENTIALS   1.000000    
 COEFFICIENTS   0.000000    

          s - f POTENTIAL

 POWERS             2              2
 EXPONENTIALS   20.93000       9.445000    
 COEFFICIENTS   253.7496       37.92285    

          p - f POTENTIAL

 POWERS             2              2
 EXPONENTIALS   21.76000       9.178000    
 COEFFICIENTS   161.0368       27.65130    

          d - f POTENTIAL

 POWERS             2              2
 EXPONENTIALS   25.90000       8.835000    
 COEFFICIENTS  -24.43128      -1.434251    


 BASIS DATA

   Nr Sym  Nuc  Type         Exponents   Contraction coefficients

    1.1 Ag    1  1s     4316265.000000     1.000000
    2.1 Ag    1  1s      646342.400000     1.000000
    3.1 Ag    1  1s      147089.700000     1.000000
    4.1 Ag    1  1s       41661.520000     1.000000
    5.1 Ag    1  1s       13590.770000     1.000000
    6.1 Ag    1  1s        4905.750000     1.000000
    7.1 Ag    1  1s        1912.746000     1.000000
    8.1 Ag    1  1s         792.604300     1.000000
    9.1 Ag    1  1s         344.806500     1.000000
   10.1 Ag    1  1s         155.899900     1.000000
   11.1 Ag    1  1s          72.230910     1.000000
   12.1 Ag    1  1s          32.725060     1.000000
   13.1 Ag    1  1s          15.667620     1.000000
   14.1 Ag    1  1s           7.503483     1.000000
   15.1 Ag    1  1s           3.312223     1.000000
   16.1 Ag    1  1s           1.558471     1.000000
   17.1 Ag    1  1s           0.683914     1.000000
   18.1 Ag    1  1s           0.146757     1.000000
   19.1 Ag    1  1s           0.070583     1.000000
   20.1 Ag    1  1s           0.031449     1.000000
   21.1 Ag    1  1s           4.684400     1.000000
   22.1 Ag    1  1s           1.220400     1.000000
   23.1 Ag    1  1s           0.014010     1.000000
   24.1 Ag    1  3d0        114.884000     1.000000
   25.1 Ag    1  3d2+       114.884000     1.000000
   26.1 Ag    1  3d0         33.887800     1.000000
   27.1 Ag    1  3d2+        33.887800     1.000000
   28.1 Ag    1  3d0         12.373000     1.000000
   29.1 Ag    1  3d2+        12.373000     1.000000
   30.1 Ag    1  3d0          4.999250     1.000000
   31.1 Ag    1  3d2+         4.999250     1.000000
   32.1 Ag    1  3d0          2.070430     1.000000
   33.1 Ag    1  3d2+         2.070430     1.000000
   34.1 Ag    1  3d0          0.828183     1.000000
   35.1 Ag    1  3d2+         0.828183     1.000000
   36.1 Ag    1  3d0          0.307547     1.000000
   37.1 Ag    1  3d2+         0.307547     1.000000
   38.1 Ag    1  3d0          0.099455     1.000000
   39.1 Ag    1  3d2+         0.099455     1.000000
   40.1 Ag    1  3d0          4.530500     1.000000
   41.1 Ag    1  3d2+         4.530500     1.000000
   42.1 Ag    1  3d0          2.120500     1.000000
   43.1 Ag    1  3d2+         2.120500     1.000000
   44.1 Ag    1  3d0          0.032160     1.000000
   45.1 Ag    1  3d2+         0.032160     1.000000
   46.1 Ag    1  5g0          5.506800     1.000000
   47.1 Ag    1  5g4+         5.506800     1.000000
   48.1 Ag    1  5g2+         5.506800     1.000000
   49.1 Ag    1  5g0          2.051500     1.000000
   50.1 Ag    1  5g4+         2.051500     1.000000
   51.1 Ag    1  5g2+         2.051500     1.000000
   52.1 Ag    1  5g0          0.764260     1.000000
   53.1 Ag    1  5g4+         0.764260     1.000000
   54.1 Ag    1  5g2+         0.764260     1.000000
    1.2 B3u   1  2px      17745.690000     1.000000
    2.2 B3u   1  2px       4200.721000     1.000000
    3.2 B3u   1  2px       1364.429000     1.000000
    4.2 B3u   1  2px        522.080600     1.000000
    5.2 B3u   1  2px        221.459500     1.000000
    6.2 B3u   1  2px        100.909600     1.000000
    7.2 B3u   1  2px         48.401150     1.000000
    8.2 B3u   1  2px         23.985360     1.000000
    9.2 B3u   1  2px         12.182500     1.000000
   10.2 B3u   1  2px          6.242298     1.000000
   11.2 B3u   1  2px          3.110944     1.000000
   12.2 B3u   1  2px          1.509958     1.000000
   13.2 B3u   1  2px          0.710845     1.000000
   14.2 B3u   1  2px          0.272598     1.000000
   15.2 B3u   1  2px          0.103972     1.000000
   16.2 B3u   1  2px          0.038166     1.000000
   17.2 B3u   1  2px          6.878800     1.000000
   18.2 B3u   1  2px          1.574800     1.000000
   19.2 B3u   1  2px          0.014010     1.000000
   20.2 B3u   1  4f1+         6.006600     1.000000
   21.2 B3u   1  4f3+         6.006600     1.000000
   22.2 B3u   1  4f1+         2.252200     1.000000
   23.2 B3u   1  4f3+         2.252200     1.000000
   24.2 B3u   1  4f1+         0.775800     1.000000
   25.2 B3u   1  4f3+         0.775800     1.000000
   26.2 B3u   1  4f1+         0.267230     1.000000
   27.2 B3u   1  4f3+         0.267230     1.000000
    1.3 B2u   1  2py      17745.690000     1.000000
    2.3 B2u   1  2py       4200.721000     1.000000
    3.3 B2u   1  2py       1364.429000     1.000000
    4.3 B2u   1  2py        522.080600     1.000000
    5.3 B2u   1  2py        221.459500     1.000000
    6.3 B2u   1  2py        100.909600     1.000000
    7.3 B2u   1  2py         48.401150     1.000000
    8.3 B2u   1  2py         23.985360     1.000000
    9.3 B2u   1  2py         12.182500     1.000000
   10.3 B2u   1  2py          6.242298     1.000000
   11.3 B2u   1  2py          3.110944     1.000000
   12.3 B2u   1  2py          1.509958     1.000000
   13.3 B2u   1  2py          0.710845     1.000000
   14.3 B2u   1  2py          0.272598     1.000000
   15.3 B2u   1  2py          0.103972     1.000000
   16.3 B2u   1  2py          0.038166     1.000000
   17.3 B2u   1  2py          6.878800     1.000000
   18.3 B2u   1  2py          1.574800     1.000000
   19.3 B2u   1  2py          0.014010     1.000000
   20.3 B2u   1  4f1-         6.006600     1.000000
   21.3 B2u   1  4f3-         6.006600     1.000000
   22.3 B2u   1  4f1-         2.252200     1.000000
   23.3 B2u   1  4f3-         2.252200     1.000000
   24.3 B2u   1  4f1-         0.775800     1.000000
   25.3 B2u   1  4f3-         0.775800     1.000000
   26.3 B2u   1  4f1-         0.267230     1.000000
   27.3 B2u   1  4f3-         0.267230     1.000000
    1.4 B1g   1  3d2-       114.884000     1.000000
    2.4 B1g   1  3d2-        33.887800     1.000000
    3.4 B1g   1  3d2-        12.373000     1.000000
    4.4 B1g   1  3d2-         4.999250     1.000000
    5.4 B1g   1  3d2-         2.070430     1.000000
    6.4 B1g   1  3d2-         0.828183     1.000000
    7.4 B1g   1  3d2-         0.307547     1.000000
    8.4 B1g   1  3d2-         0.099455     1.000000
    9.4 B1g   1  3d2-         4.530500     1.000000
   10.4 B1g   1  3d2-         2.120500     1.000000
   11.4 B1g   1  3d2-         0.032160     1.000000
   12.4 B1g   1  5g2-         5.506800     1.000000
   13.4 B1g   1  5g4-         5.506800     1.000000
   14.4 B1g   1  5g2-         2.051500     1.000000
   15.4 B1g   1  5g4-         2.051500     1.000000
   16.4 B1g   1  5g2-         0.764260     1.000000
   17.4 B1g   1  5g4-         0.764260     1.000000
    1.5 B1u   1  2pz      17745.690000     1.000000
    2.5 B1u   1  2pz       4200.721000     1.000000
    3.5 B1u   1  2pz       1364.429000     1.000000
    4.5 B1u   1  2pz        522.080600     1.000000
    5.5 B1u   1  2pz        221.459500     1.000000
    6.5 B1u   1  2pz        100.909600     1.000000
    7.5 B1u   1  2pz         48.401150     1.000000
    8.5 B1u   1  2pz         23.985360     1.000000
    9.5 B1u   1  2pz         12.182500     1.000000
   10.5 B1u   1  2pz          6.242298     1.000000
   11.5 B1u   1  2pz          3.110944     1.000000
   12.5 B1u   1  2pz          1.509958     1.000000
   13.5 B1u   1  2pz          0.710845     1.000000
   14.5 B1u   1  2pz          0.272598     1.000000
   15.5 B1u   1  2pz          0.103972     1.000000
   16.5 B1u   1  2pz          0.038166     1.000000
   17.5 B1u   1  2pz          6.878800     1.000000
   18.5 B1u   1  2pz          1.574800     1.000000
   19.5 B1u   1  2pz          0.014010     1.000000
   20.5 B1u   1  4f0          6.006600     1.000000
   21.5 B1u   1  4f2+         6.006600     1.000000
   22.5 B1u   1  4f0          2.252200     1.000000
   23.5 B1u   1  4f2+         2.252200     1.000000
   24.5 B1u   1  4f0          0.775800     1.000000
   25.5 B1u   1  4f2+         0.775800     1.000000
   26.5 B1u   1  4f0          0.267230     1.000000
   27.5 B1u   1  4f2+         0.267230     1.000000
    1.6 B2g   1  3d1+       114.884000     1.000000
    2.6 B2g   1  3d1+        33.887800     1.000000
    3.6 B2g   1  3d1+        12.373000     1.000000
    4.6 B2g   1  3d1+         4.999250     1.000000
    5.6 B2g   1  3d1+         2.070430     1.000000
    6.6 B2g   1  3d1+         0.828183     1.000000
    7.6 B2g   1  3d1+         0.307547     1.000000
    8.6 B2g   1  3d1+         0.099455     1.000000
    9.6 B2g   1  3d1+         4.530500     1.000000
   10.6 B2g   1  3d1+         2.120500     1.000000
   11.6 B2g   1  3d1+         0.032160     1.000000
   12.6 B2g   1  5g1+         5.506800     1.000000
   13.6 B2g   1  5g3+         5.506800     1.000000
   14.6 B2g   1  5g1+         2.051500     1.000000
   15.6 B2g   1  5g3+         2.051500     1.000000
   16.6 B2g   1  5g1+         0.764260     1.000000
   17.6 B2g   1  5g3+         0.764260     1.000000
    1.7 B3g   1  3d1-       114.884000     1.000000
    2.7 B3g   1  3d1-        33.887800     1.000000
    3.7 B3g   1  3d1-        12.373000     1.000000
    4.7 B3g   1  3d1-         4.999250     1.000000
    5.7 B3g   1  3d1-         2.070430     1.000000
    6.7 B3g   1  3d1-         0.828183     1.000000
    7.7 B3g   1  3d1-         0.307547     1.000000
    8.7 B3g   1  3d1-         0.099455     1.000000
    9.7 B3g   1  3d1-         4.530500     1.000000
   10.7 B3g   1  3d1-         2.120500     1.000000
   11.7 B3g   1  3d1-         0.032160     1.000000
   12.7 B3g   1  5g1-         5.506800     1.000000
   13.7 B3g   1  5g3-         5.506800     1.000000
   14.7 B3g   1  5g1-         2.051500     1.000000
   15.7 B3g   1  5g3-         2.051500     1.000000
   16.7 B3g   1  5g1-         0.764260     1.000000
   17.7 B3g   1  5g3-         0.764260     1.000000
    1.8 Au    1  4f2-         6.006600     1.000000
    2.8 Au    1  4f2-         2.252200     1.000000
    3.8 Au    1  4f2-         0.775800     1.000000
    4.8 Au    1  4f2-         0.267230     1.000000

 NUCLEAR CHARGE:                   16
 NUMBER OF PRIMITIVE AOS:         231
 NUMBER OF SYMMETRY AOS:          190
 NUMBER OF CONTRACTIONS:          190   (  54Ag  +  27B3u +  27B2u +  17B1g +  27B1u +  17B2g +  17B3g +   4Au  )
 NUMBER OF CORE ORBITALS:           4   (   1Ag  +   1B3u +   1B2u +   0B1g +   1B1u +   0B2g +   0B3g +   0Au  )
 NUMBER OF VALENCE ORBITALS:        6   (   3Ag  +   0B3u +   0B2u +   1B1g +   0B1u +   1B2g +   1B3g +   0Au  )


 NUCLEAR REPULSION ENERGY    0.00000000

 EXTRA SYMMETRY OF AOS IN SYMMETRY 1:   1 1 1 1 1 1 1 1 1 1   1 1 1 1 1 1 1 1 1 1   1 1 1 2 3 2 3 2 3 2   3 2 3 2 3 2 3 2 3 2
                                        3 2 3 2 3 4 5 6 4 5   6 4 5 6
 EXTRA SYMMETRY OF AOS IN SYMMETRY 2:   1 1 1 1 1 1 1 1 1 1   1 1 1 1 1 1 1 1 1 2   3 2 3 2 3 2 3
 EXTRA SYMMETRY OF AOS IN SYMMETRY 3:   1 1 1 1 1 1 1 1 1 1   1 1 1 1 1 1 1 1 1 2   3 2 3 2 3 2 3
 EXTRA SYMMETRY OF AOS IN SYMMETRY 4:   1 1 1 1 1 1 1 1 1 1   1 2 3 2 3 2 3
 EXTRA SYMMETRY OF AOS IN SYMMETRY 5:   1 1 1 1 1 1 1 1 1 1   1 1 1 1 1 1 1 1 1 2   3 2 3 2 3 2 3
 EXTRA SYMMETRY OF AOS IN SYMMETRY 6:   1 1 1 1 1 1 1 1 1 1   1 2 3 2 3 2 3
 EXTRA SYMMETRY OF AOS IN SYMMETRY 7:   1 1 1 1 1 1 1 1 1 1   1 2 3 2 3 2 3

 Eigenvalues of metric

         1 0.266E-05 0.266E-05 0.644E-05 0.714E-04 0.240E-03 0.240E-03 0.588E-03 0.167E-02
         2 0.976E-06 0.806E-05 0.117E-02 0.474E-02 0.118E-01 0.255E-01 0.447E-01 0.821E-01
         3 0.976E-06 0.806E-05 0.117E-02 0.474E-02 0.118E-01 0.255E-01 0.447E-01 0.821E-01
         4 0.266E-05 0.240E-03 0.543E-01 0.121E+00 0.255E+00 0.305E+00 0.305E+00 0.450E+00
         5 0.976E-06 0.806E-05 0.117E-02 0.474E-02 0.118E-01 0.255E-01 0.447E-01 0.821E-01
         6 0.266E-05 0.240E-03 0.543E-01 0.121E+00 0.255E+00 0.305E+00 0.305E+00 0.450E+00
         7 0.266E-05 0.240E-03 0.543E-01 0.121E+00 0.255E+00 0.305E+00 0.305E+00 0.450E+00
         8 0.200E+00 0.542E+00 0.124E+01 0.202E+01


 Contracted 2-electron integrals neglected if value below      1.0D-13
 AO integral compression algorithm  1   Integral accuracy      1.0D-13

     171.966 MB (compressed) written to integral file ( 54.9%)


 NUMBER OF SORTED TWO-ELECTRON INTEGRALS:   21725389.     BUFFER LENGTH:  32768
 NUMBER OF SEGMENTS:   2  SEGMENT LENGTH:   15999094      RECORD LENGTH: 524288

 Memory used in sort:      16.56 MW

 SORT1 READ    39142000. AND WROTE    14940868. INTEGRALS IN     44 RECORDS. CPU TIME:     0.64 SEC, REAL TIME:     0.98 SEC
 SORT2 READ    14940868. AND WROTE    21725389. INTEGRALS IN    656 RECORDS. CPU TIME:     0.42 SEC, REAL TIME:     0.86 SEC

 FILE SIZES:   FILE 1:   192.0 MBYTE,  FILE 4:   184.6 MBYTE,   TOTAL:    376.5 MBYTE

 OPERATOR DM      FOR CENTER  0  COORDINATES:    0.000000    0.000000    0.000000
 OPERATOR EKIN    FOR CENTER  0  COORDINATES:    0.000000    0.000000    0.000000
 OPERATOR POT     FOR CENTER  0  COORDINATES:    0.000000    0.000000    0.000000


 **********************************************************************************************************************************
 DATASETS  * FILE   NREC   LENGTH (MB)   RECORD NAMES
              1      20      107.28       500      610      700      900      950      970     1000      129      960     1100   
                                          VAR    BASINP    GEOM    SYMINP    ZMAT    AOBASIS   BASIS     P2S    ABASIS      S 
                                         1400     1410     1420     1200     1210     1080     1600     1650     1300     1700   
                                         EKIN       V       ECP      H0       H01     AOSYM     SMH    MOLCAS    ERIS     OPER   

 PROGRAMS   *        TOTAL       INT
 CPU TIMES  *         9.44      9.35
 REAL TIME  *        25.50 SEC
 DISK USED  *       376.85 MB      
 **********************************************************************************************************************************


 PROGRAM * RHF-SCF (OPEN SHELL)       Authors: W. Meyer, H.-J. Werner


 NUMBER OF ELECTRONS:      10+    6-    SPACE SYMMETRY=1    SPIN SYMMETRY: Quintet 
 CONVERGENCE THRESHOLDS:    1.00E-05 (Density)    1.00E-07 (Energy)
 MAX. NUMBER OF ITERATIONS:       60
 INTERPOLATION TYPE:            DIIS
 INTERPOLATION STEPS:              2 (START)      1 (STEP)
 LEVEL SHIFTS:                 -0.60 (CLOSED) -0.30 (OPEN) 


 Singly occupied orbitals:      4.1       1.4       1.6       1.7
 
 Extra symmetries of mos in symmetry 1:   1   1   3

   Atom=FE basis=ECP10MDF_GUESS    lmin=0  lmax=2

 Orbital guess generated from atomic densities. Full valence occupancy:    4   1   1   1   1   1   1   0


 Molecular orbital dump at record        2100.2

 ITERATION    DDIFF          GRAD             ENERGY        2-EL.EN.            DIPOLE MOMENTS         DIIS   ORB.
    1      0.000D+00      0.000D+00      -123.02738772    181.078310    0.00000    0.00000    0.00000    0    start
    2      0.000D+00      0.183D-01      -123.10185399    188.906370    0.00000    0.00000    0.00000    1    diag,B
    3      0.108D-01      0.128D-01      -123.11637273    187.266981    0.00000    0.00000    0.00000    2    diag,B
    4      0.332D-02      0.302D-02      -123.11838481    187.149490    0.00000    0.00000    0.00000    3    diag,B
    5      0.319D-02      0.571D-03      -123.11860231    187.134994    0.00000    0.00000    0.00000    4    diag,B
    6      0.122D-02      0.158D-03      -123.11863751    187.099049    0.00000    0.00000    0.00000    5    diag,B
    7      0.413D-03      0.657D-04      -123.11864644    187.077435    0.00000    0.00000    0.00000    6    fixocc
    8      0.297D-03      0.279D-04      -123.11864844    187.069304    0.00000    0.00000    0.00000    7    diag,B
    9      0.214D-03      0.112D-04      -123.11864883    187.067006    0.00000    0.00000    0.00000    8    diag,B
   10      0.853D-04      0.668D-05      -123.11864902    187.066877    0.00000    0.00000    0.00000    9    orth
   11      0.194D-04      0.558D-05      -123.11864917    187.066755    0.00000    0.00000    0.00000    9    diag,B
   12      0.179D-04      0.533D-05      -123.11864931    187.066756    0.00000    0.00000    0.00000    9    diag,B
   13      0.904D-05      0.530D-05      -123.11864940    187.066757    0.00000    0.00000    0.00000    9    diag,B
   14      0.255D-05      0.529D-05      -123.11864984    187.066767    0.00000    0.00000    0.00000    0    orth

 Final alpha occupancy:   4   1   1   1   1   1   1   0
 Final beta  occupancy:   3   1   1   0   1   0   0   0

 !RHF STATE 1.1 Energy               -123.118649840759
 Nuclear energy                         0.00000000
 One-electron energy                 -216.65203344
 Two-electron energy                   93.53338360
 Virial quotient                       -1.69347713
 !RHF STATE 1.1 Dipole moment           0.00000000     0.00000000     0.00000000
 Dipole moment /Debye                   0.00000000     0.00000000     0.00000000
 

 !RHF expec          <1.1|EKIN|1.1>    72.701690476155
 
 !RHF expec           <1.1|POT|1.1>   -18.926706374375

 ELECTRON ORBITALS
 =================


   Orb  Occ    Energy  Couls-En    Coefficients

                                   1 1s      1 1s      1 1s      1 1s      1 1s      1 1s      1 1s      1 1s      1 1s      1 1s   
                                   1 1s      1 1s      1 1s      1 1s      1 1s      1 1s      1 1s      1 1s      1 1s      1 1s   
                                   1 1s      1 1s      1 1s      1 3d0     1 3d2+    1 3d0     1 3d2+    1 3d0     1 3d2+    1 3d0  
                                   1 3d2+    1 3d0     1 3d2+    1 3d0     1 3d2+    1 3d0     1 3d2+    1 3d0     1 3d2+    1 3d0  
                                   1 3d2+    1 3d0     1 3d2+    1 3d0     1 3d2+    1 5g0     1 5g4+    1 5g2+    1 5g0     1 5g4+ 
                                   1 5g2+    1 5g0     1 5g4+    1 5g2+ 

   1.1   2    -4.3239  -21.7109  0.000000  0.000000  0.000000  0.000004 -0.000004  0.000067 -0.000089  0.000677 -0.001173  0.005211
                                -0.013748  0.052023  0.000330 -0.536891  0.009350  0.851181  0.383652  0.011796 -0.005706  0.002226
                                 0.194687 -0.090334 -0.000563  0.000000 -0.000009 -0.000001 -0.000111 -0.000059 -0.000440 -0.001872
                                -0.000104  0.012063 -0.007571 -0.001491 -0.000885 -0.001415 -0.000178 -0.000133 -0.000045  0.002575
                                -0.001306 -0.010999  0.005507 -0.000001  0.000006  0.000044  0.000201 -0.000060  0.000086  0.000403
                                -0.000120  0.000111  0.000556 -0.000160

   2.1   2    -0.2628   -5.8977 -0.000000 -0.000000 -0.000000 -0.000001  0.000001 -0.000016  0.000021 -0.000164  0.000278 -0.001261
                                 0.003327 -0.012973  0.001843  0.135248 -0.008786 -0.248781 -0.232564  0.349164  0.553916  0.255163
                                -0.050366  0.003146 -0.001336  0.000004  0.000011  0.000045  0.000135  0.000203  0.000558  0.000669
                                 0.001039 -0.002097  0.003630  0.002322  0.001244  0.008169 -0.002175  0.007243 -0.002847 -0.000407
                                 0.000359  0.002331 -0.001532  0.000708 -0.000313  0.000006  0.000019 -0.000005  0.000038  0.000153
                                -0.000042  0.000016 -0.000105  0.000014

   3.1   2    -0.5461  -13.1134  0.000000  0.000000  0.000000  0.000000 -0.000000  0.000000 -0.000000  0.000002 -0.000004  0.000018
                                -0.000047  0.000174  0.000045 -0.001952 -0.000171  0.003281  0.001725  0.000057 -0.000092  0.000021
                                 0.000756 -0.000629 -0.000008 -0.000437  0.001981 -0.005446  0.024708 -0.022742  0.103177 -0.046758
                                 0.212140 -0.095503  0.433225 -0.078221  0.354887 -0.049294  0.223380 -0.010358  0.046769 -0.006321
                                 0.028684  0.018833 -0.085335  0.000528 -0.002389 -0.000161 -0.000245  0.000387 -0.000395 -0.000603
                                 0.000947 -0.000431 -0.000674  0.001027

   4.1   +    -0.7055  -13.5603  0.000000  0.000000 -0.000000  0.000000 -0.000000  0.000000 -0.000001  0.000003 -0.000006  0.000026
                                -0.000071  0.000279 -0.000198 -0.002039  0.001796  0.000868  0.000428 -0.004356 -0.003738 -0.002295
                                -0.000149  0.004041  0.000104  0.002047  0.000451  0.025502  0.005620  0.106509  0.023471  0.218444
                                 0.048167  0.466448  0.102518  0.358572  0.079069  0.189173  0.041762  0.024091  0.005336  0.031946
                                 0.006999 -0.103036 -0.022443 -0.001135 -0.000247  0.000832  0.000388 -0.000045  0.001943  0.000934
                                -0.000104  0.002018  0.000611 -0.000192

                                   1 2px     1 2px     1 2px     1 2px     1 2px     1 2px     1 2px     1 2px     1 2px     1 2px  
                                   1 2px     1 2px     1 2px     1 2px     1 2px     1 2px     1 2px     1 2px     1 2px     1 4f1+ 
                                   1 4f3+    1 4f1+    1 4f3+    1 4f1+    1 4f3+    1 4f1+    1 4f3+ 

   1.2   2    -2.7564  -18.4411  0.000001 -0.000001  0.000027 -0.000019  0.000443 -0.000579  0.005321 -0.003234 -0.094901  0.005181
                                 0.339667  0.405613  0.280484  0.041012 -0.002718  0.001651  0.030249  0.051662 -0.000489  0.000107
                                 0.000995  0.000925  0.001913 -0.000423  0.002950 -0.000410  0.000785

                                   1 2py     1 2py     1 2py     1 2py     1 2py     1 2py     1 2py     1 2py     1 2py     1 2py  
                                   1 2py     1 2py     1 2py     1 2py     1 2py     1 2py     1 2py     1 2py     1 2py     1 4f1- 
                                   1 4f3-    1 4f1-    1 4f3-    1 4f1-    1 4f3-    1 4f1-    1 4f3- 

   1.3   2    -2.7601  -18.4495  0.000001 -0.000001  0.000027 -0.000019  0.000442 -0.000577  0.005313 -0.003189 -0.095029  0.003960
                                 0.340393  0.413145  0.279400  0.039920 -0.002757  0.001628  0.031107  0.045312 -0.000481  0.000481
                                -0.001347  0.001602 -0.003332  0.000728 -0.003257 -0.000084 -0.000548

                                   1 3d2-    1 3d2-    1 3d2-    1 3d2-    1 3d2-    1 3d2-    1 3d2-    1 3d2-    1 3d2-    1 3d2- 
                                   1 3d2-    1 5g2-    1 5g4-    1 5g2-    1 5g4-    1 5g2-    1 5g4- 

   1.4   +    -0.6651  -13.4644  0.002083  0.025952  0.108373  0.222296  0.470791  0.366644  0.201091  0.028922  0.032101 -0.101829
                                -0.001471  0.000554 -0.000488  0.001298 -0.001157  0.001388 -0.001195

                                   1 2pz     1 2pz     1 2pz     1 2pz     1 2pz     1 2pz     1 2pz     1 2pz     1 2pz     1 2pz  
                                   1 2pz     1 2pz     1 2pz     1 2pz     1 2pz     1 2pz     1 2pz     1 2pz     1 2pz     1 4f0  
                                   1 4f2+    1 4f0     1 4f2+    1 4f0     1 4f2+    1 4f0     1 4f2+ 

   1.5   2    -2.7644  -18.4604  0.000001 -0.000001  0.000027 -0.000019  0.000442 -0.000575  0.005303 -0.003127 -0.095203  0.002283
                                 0.341383  0.423274  0.277887  0.038547 -0.002756  0.001596  0.032281  0.036781 -0.000470  0.000842
                                -0.000511  0.002629 -0.001404  0.001455 -0.001098 -0.000030 -0.000112

                                   1 3d1+    1 3d1+    1 3d1+    1 3d1+    1 3d1+    1 3d1+    1 3d1+    1 3d1+    1 3d1+    1 3d1+ 
                                   1 3d1+    1 5g1+    1 5g3+    1 5g1+    1 5g3+    1 5g1+    1 5g3+ 

   1.6   +    -0.6862  -13.5157  0.002090  0.026040  0.108750  0.223063  0.474357  0.366942  0.197158  0.026630  0.032418 -0.103688
                                -0.001304  0.001046 -0.000539  0.002458 -0.001285  0.002482 -0.001178

                                   1 3d1-    1 3d1-    1 3d1-    1 3d1-    1 3d1-    1 3d1-    1 3d1-    1 3d1-    1 3d1-    1 3d1- 
                                   1 3d1-    1 5g1-    1 5g3-    1 5g1-    1 5g3-    1 5g1-    1 5g3- 

   1.7   +    -0.7013  -13.5509  0.002095  0.026097  0.108995  0.223584  0.476616  0.367174  0.194508  0.025107  0.032602 -0.104811
                                -0.001187  0.000694  0.000089  0.001620  0.000227  0.001674 -0.000061

 HOMO      1.4    -0.665085 =     -18.0979eV
 LUMO      2.5     0.019346 =       0.5264eV
 LUMO-HOMO         0.684431 =      18.6243eV


 **********************************************************************************************************************************
 DATASETS  * FILE   NREC   LENGTH (MB)   RECORD NAMES
              1      20      107.28       500      610      700      900      950      970     1000      129      960     1100   
                                          VAR    BASINP    GEOM    SYMINP    ZMAT    AOBASIS   BASIS     P2S    ABASIS      S 
                                         1400     1410     1420     1200     1210     1080     1600     1650     1300     1700   
                                         EKIN       V       ECP      H0       H01     AOSYM     SMH    MOLCAS    ERIS     OPER   

              2       4        2.94       700     1000      520     2100   
                                         GEOM     BASIS   MCVARS     RHF  

 PROGRAMS   *        TOTAL        HF       INT
 CPU TIMES  *        10.56      1.12      9.35
 REAL TIME  *        26.89 SEC
 DISK USED  *       376.85 MB      
 **********************************************************************************************************************************
 SETTING SCF(I)         =      -123.11864984  AU                              
 SETTING _CC_NORM_MAX   =         2.00000000                                  


 PROGRAM * CI (Multireference internally contracted CI)     Authors: H.-J. Werner, P.J. Knowles, 1987


 Convergence thresholds:  THRVAR = 1.00D-08  THRDEN = 1.00D-06

 Number of optimized states:  1  Roots:   1
 Number of reference states:  1  Roots:   1

 Reference symmetry:                   1   Quintet 
 Number of electrons:                 16
 Maximum number of shells:             3
 Maximum number of spin couplings:    20

 Reference space:        1 conf        1 CSFs
 N elec internal:      115 conf      115 CSFs
 N-1 el internal:      166 conf      430 CSFs
 N-2 el internal:       51 conf      456 CSFs

 Number of electrons in valence space:                     16
 Maximum number of open shell orbitals in reference space:  4
 Maximum number of open shell orbitals in internal spaces:  8


 Number of closed-shell orbitals:   6 (   3   1   1   0   1   0   0   0 )
 Number of active  orbitals:        4 (   1   0   0   1   0   1   1   0 )
 Number of external orbitals:     180 (  50  26  26  16  26  16  16   4 )

 Molecular orbitals read from record     2100.2  Type=RHF/CANONICAL (state 1.1)

 Integral transformation finished. Total CPU:   0.22 sec, npass=  1  Memory used:   0.36 MW

 Number of p-space configurations:   1

 Reference wavefunction optimized for reference space (refopt=1)

 State     Reference Energy 
   1        -123.11864984

 Number of blocks in overlap matrix:    90   Smallest eigenvalue:  0.10D+01
 Number of N-2 electron functions:      90
 Number of N-1 electron functions:     430

 Number of internal configurations:                   10
 Number of singly external configurations:          9704
 Number of doubly external configurations:        191172
 Total number of contracted configurations:       200886
 Total number of uncontracted configurations:    1003080

 Diagonal Coupling coefficients finished.               Storage:   35206 words, CPU-Time:      0.00 seconds.
 Energy denominators for pairs finished in 1 passes.    Storage:  124004 words, CPU-time:      0.01 seconds.

  ITER. STATE  ROOT     SQ.NORM     CORR.ENERGY   TOTAL ENERGY   ENERGY CHANGE       DEN1      VAR(S)    VAR(P)      TIME
    1     1     1     1.00000000     0.00000000  -123.11864984    -0.00000000    -0.69823114  0.28D-01  0.92D-01     0.25
    2     1     1     1.08194325    -0.58800542  -123.70665526    -0.58800542    -0.01399018  0.20D-02  0.17D-02     0.87
    3     1     1     1.07427054    -0.60133073  -123.71998057    -0.01332531    -0.00035188  0.29D-04  0.71D-04     1.46
    4     1     1     1.07417886    -0.60168496  -123.72033480    -0.00035423    -0.00002224  0.68D-05  0.26D-05     2.04
    5     1     1     1.07433373    -0.60170801  -123.72035785    -0.00002305    -0.00000110  0.17D-06  0.17D-06     2.64
    6     1     1     1.07438805    -0.60170916  -123.72035900    -0.00000115    -0.00000006  0.13D-07  0.77D-08     3.23
    7     1     1     1.07439371    -0.60170923  -123.72035907    -0.00000007    -0.00000000  0.33D-09  0.34D-09     3.81


 =====================================
 Analysis of CPU times by interactions
 =====================================

       I      S      P

 I   0.0%
 S   0.0%  20.7%
 P   0.3%   3.1%  13.4%

 Initialization:   6.6%
 Other:           55.9%

 Total CPU:        3.8 seconds
 =====================================



 Reference coefficients greater than 0.0500000
 =============================================
 222/22/2//           0.9638350



 RESULTS FOR STATE 1.1
 =====================

 Coefficient of reference function:   C(0) = 0.96383497 (fixed)   0.96383497 (relaxed)

 Energy contributions of configuration classes

 CLASS          SQ.NORM        ECORR1        ECORR2
 +++++++++++++++++++++++++++++++++++++++++++++++++++
 Internals    0.00191571   -0.01224495   -0.01244612
 Singles      0.01862164   -0.12742312   -0.12878093
 Pairs        0.05591460   -0.46204115   -0.46048217
 Total        1.07645194   -0.60170923   -0.60170923
 +++++++++++++++++++++++++++++++++++++++++++++++++++


 Reference energy                    -123.11864984
 Nuclear energy                         0.00000000
 Kinetic energy                        73.06954068
 One electron energy                 -216.10912554
 Two electron energy                   92.38876648
 Virial quotient                       -1.69318649
 Correlation energy                    -0.60170923
 !CI(SD) STATE 1.1 Energy            -123.720359068730

 Properties without orbital relaxation:

 !CI(SD) STATE 1.1 Dipole moment        0.00000000     0.00000000     0.00000000
 Dipole moment /Debye                   0.00000000     0.00000000     0.00000000

 Cluster corrected energies          -123.76636091 (Davidson, fixed reference)
 Cluster corrected energies          -123.76636091 (Davidson, relaxed reference)

 Cluster corrected energies          -123.76071637 (Pople, fixed reference)
 Cluster corrected energies          -123.76071637 (Pople, relaxed reference)

 

 !CI(SD) expec       <1.1|EKIN|1.1>    73.069540684340
 
 !CI(SD) expec        <1.1|POT|1.1>   -18.919066846366


 **********************************************************************************************************************************
 DATASETS  * FILE   NREC   LENGTH (MB)   RECORD NAMES
              1      21      110.66       500      610      700      900      950      970     1000      129      960     1100   
                                          VAR    BASINP    GEOM    SYMINP    ZMAT    AOBASIS   BASIS     P2S    ABASIS      S 
                                         1400     1410     1420     1200     1210     1080     1600     1650     1300     1700   
                                         EKIN       V       ECP      H0       H01     AOSYM     SMH    MOLCAS    ERIS     OPER   
                                         1380   
                                         JKOP   

              2       4        2.94       700     1000      520     2100   
                                         GEOM     BASIS   MCVARS     RHF  

 PROGRAMS   *        TOTAL        CI        HF       INT
 CPU TIMES  *        14.40      3.84      1.12      9.35
 REAL TIME  *        31.73 SEC
 DISK USED  *       376.85 MB      
 **********************************************************************************************************************************
 SETTING POSTHF(I)      =      -123.72035907  AU                              
                                                                                                                                                                                                                                                                

         SCF            POSTHF       EKIN           POT
    -123.1186498   -123.7203591   73.06954068   -18.91906685
                                                  

 CI/USERDEF energy=   -123.720359068730

        CI              HF-SCF  
   -123.72035907   -123.11864984
 **********************************************************************************************************************************
 Variable memory released
