
 Primary working directories    : /global/cscratch1/sd/aannabe
 Secondary working directories  : /global/cscratch1/sd/aannabe
 Wavefunction directory         : /global/homes/a/aannabe/wfu/
 Main file repository           : /global/cscratch1/sd/aannabe/

 SHA1      : 2873118e99aab1bc19f5b6fc1784693c06d15c95
 NAME      : 2015.1.8
 ARCHNAME  : linux/x86_64
 FC        : /opt/cray/pe/craype/2.5.5/bin/ftn
 BLASLIB   : -Wl,-_start-group /opt/intel/compilers_and_libraries_2016.3.210/linux/mkl/lib/intel64/libmkl_intel_ilp64.a /opt/intel/compilers_and_libraries_2016.3.210/linux/mkl/lib/intel64/libmkl_intel_thread.a /opt/intel/compilers_and_libraries_2016.3.210/linux/mkl/lib/intel64/libmkl_core.a -Wl,-_end-group
 id        : lbl

 Nodes     nprocs
 nid00465     1

 Using customized tuning parameters: mindgm=8; mindgv=16; mindgc=4; mindgr=1; noblas=0; minvec=7
 default implementation of scratch files=df  

 ***,Fe
 memory,512,m
 gthresh,twoint=1.e-12
 
 gprint,basis,orbitals
 gexpec,ekin,pot
 
 angstrom
 geometry={
 1                                                                               ! Number of atoms
 Fe 0.0 0.0 0.0
 }
 
 basis={
 Including file /global/homes/a/aannabe/docs/accurate/ccECP_D2h/pps/Fe.pp
                                             !include,/global/homes/a/aannabe/docs/accurate/ccECP_D2h/basis/aug-cc-pVnZ/Fe_dz.basis
 Including file /global/homes/a/aannabe/docs/accurate/ccECP_D2h/basis/cc-pVnZ/Fe_dz.basis
 }
 
 {hf
 wf,16,1,4
 occ,4,1,1,1,1,1,1,0
 open,4.1,1.4,1.6,1.7
 sym,1,1,1,3
 }
 scf(i)=energy
 
 _CC_NORM_MAX=2.0
 {ci
 maxit,100
 core
 }
 posthf(i)=energy
 
 table,scf,posthf,ekin,pot
 save,2.csv,new
 
 

 Variables initialized (889), CPU time= 0.02 sec
 Commands  initialized (702), CPU time= 0.02 sec, 572 directives.
 Default parameters read. Elapsed time= 0.21 sec

 Checking input...
 Passed
1


                                         ***  PROGRAM SYSTEM MOLPRO  ***
                                       Copyright, TTI GmbH Stuttgart, 2015
                                    Version 2015.1 linked Sep  7 2016 23:09:38


 **********************************************************************************************************************************
 LABEL *   Fe                                                                            
  64 bit serial version                                                                  DATE: 13-Nov-18          TIME: 22:26:06  
 **********************************************************************************************************************************

 SHA1:             2873118e99aab1bc19f5b6fc1784693c06d15c95
 **********************************************************************************************************************************

 THRESHOLDS:

 ZERO    =  1.00D-12  ONEINT  =  1.00D-12  TWOINT  =  1.00D-12  PREFAC  =  1.00D-14  LOCALI  =  1.00D-09  EORDER  =  1.00D-04
 ENERGY  =  0.00D+00  ETEST   =  0.00D+00  EDENS   =  0.00D+00  THRDEDEF=  1.00D-06  GRADIENT=  1.00D-02  STEP    =  1.00D-03
 ORBITAL =  1.00D-05  CIVEC   =  1.00D-05  COEFF   =  1.00D-04  PRINTCI =  5.00D-02  PUNCHCI =  9.90D+01  OPTGRAD =  3.00D-04
 OPTENERG=  1.00D-06  OPTSTEP =  3.00D-04  THRGRAD =  1.00D-10  COMPRESS=  1.00D-11  VARMIN  =  1.00D-07  VARMAX  =  1.00D-03
 THRDOUB =  0.00D+00  THRDIV  =  1.00D-05  THRRED  =  1.00D-07  THRPSP  =  1.00D+00  THRDC   =  1.00D-10  THRCS   =  1.00D-10
 THRNRM  =  1.00D-08  THREQ   =  0.00D+00  THRDE   =  1.00D+00  THRREF  =  1.00D-05  SPARFAC =  1.00D+00  THRDLP  =  1.00D-07
 THRDIA  =  1.00D-10  THRDLS  =  1.00D-07  THRGPS  =  0.00D+00  THRKEX  =  0.00D+00  THRDIS  =  2.00D-01  THRVAR  =  1.00D-10
 THRLOC  =  1.00D-06  THRGAP  =  1.00D-06  THRLOCT = -1.00D+00  THRGAPT = -1.00D+00  THRORB  =  1.00D-06  THRMLTP =  0.00D+00
 THRCPQCI=  1.00D-10  KEXTA   =  0.00D+00  THRCOARS=  0.00D+00  SYMTOL  =  1.00D-06  GRADTOL =  1.00D-06  THROVL  =  1.00D-08
 THRORTH =  1.00D-08  GRID    =  1.00D-06  GRIDMAX =  1.00D-03  DTMAX   =  0.00D+00  THROCCDE=  1.00D-01  THROCCDE=  1.00D-01



 ZUNIT=ANG
 

Geometry recognized as XYZ


 Variable memory set to  512000000 words,  buffer space   230000 words

 SETTING BASIS          =    USERDEF


 Recomputing integrals since basis changed


 Using spherical harmonics



 PROGRAM * SEWARD (Integral evaluation for generally contracted gaussian basis sets)     Author: Roland Lindh, 1990

 Geometry written to block  1 of record 700

 Orientation using atomic masses  
 Molecule type: Atom
 Symmetry elements: X,Y,Z
 Rotational constants:       0.0000000      0.0000000      0.0000000 GHz  (calculated with average atomic masses)

 Point group  D2h 



 ATOMIC COORDINATES

 NR  ATOM    CHARGE       X              Y              Z

   1  FE     16.00    0.000000000    0.000000000    0.000000000


          FE  CORE POTENTIAL

          d POTENTIAL

 POWERS             1              3              2              2
 EXPONENTIALS   23.22092       23.54715       23.47256       9.852388    
 COEFFICIENTS   16.00000       371.5347      -181.2260      -2.373052    

          s - d POTENTIAL

 POWERS             2              2
 EXPONENTIALS   22.21063       9.515158    
 COEFFICIENTS   277.5003       46.20496    

          p - d POTENTIAL

 POWERS             2              2
 EXPONENTIALS   24.57001       8.866488    
 COEFFICIENTS   194.9988       31.67945    


 BASIS DATA

   Nr Sym  Nuc  Type         Exponents   Contraction coefficients

    1.1 Ag    1  1s          84.322332     0.000785   -0.000162    0.000002    0.000000
    2.1 Ag                   44.203528    -0.012781    0.002921    0.004103    0.000000
    3.1 Ag                   23.288963     0.104635   -0.025466   -0.046840    0.000000
    4.1 Ag                   13.385163    -0.119385    0.031182    0.052833    0.000000
                              7.518052    -0.339804    0.086849    0.218094    0.000000
                              4.101835    -0.049994    0.006846   -0.044999    0.000000
                              2.253571     0.476955   -0.131856   -0.287386    0.000000
                              1.134924     0.593222   -0.227746   -0.713220    0.000000
                              0.561550     0.200151   -0.173079    0.249174    0.000000
                              0.201961     0.008591    0.136142    1.299872    0.000000
                              0.108698    -0.002188    0.434013    0.192119    0.000000
                              0.053619     0.000677    0.477555   -0.658616    0.000000
                              0.025823    -0.000144    0.128804   -0.521047    1.000000
    5.1 Ag    1  1s           0.909741     1.000000
    6.1 Ag    1  1s           3.519995     1.000000
    7.1 Ag    1  3d0        152.736742     0.000029
                             50.772485     0.005238
                             26.253589     0.029325
                             12.137022     0.074901
                              5.853719     0.163411
                              2.856224     0.251057
                              1.386132     0.287603
                              0.670802     0.251862
                              0.330280     0.186736
                              0.170907     0.093570
                              0.086794     0.073811
    8.1 Ag    1  3d2+       152.736742     0.000029
                             50.772485     0.005238
                             26.253589     0.029325
                             12.137022     0.074901
                              5.853719     0.163411
                              2.856224     0.251057
                              1.386132     0.287603
                              0.670802     0.251862
                              0.330280     0.186736
                              0.170907     0.093570
                              0.086794     0.073811
    9.1 Ag    1  3d0        152.736742    -0.000026
                             50.772485    -0.006329
                             26.253589    -0.034398
                             12.137022    -0.091765
                              5.853719    -0.201592
                              2.856224    -0.283930
                              1.386132    -0.161981
                              0.670802     0.128822
                              0.330280     0.360160
                              0.170907     0.277592
                              0.086794     0.261403
   10.1 Ag    1  3d2+       152.736742    -0.000026
                             50.772485    -0.006329
                             26.253589    -0.034398
                             12.137022    -0.091765
                              5.853719    -0.201592
                              2.856224    -0.283930
                              1.386132    -0.161981
                              0.670802     0.128822
                              0.330280     0.360160
                              0.170907     0.277592
                              0.086794     0.261403
   11.1 Ag    1  3d0        152.736742     0.000000
                             50.772485     0.000000
                             26.253589     0.000000
                             12.137022     0.000000
                              5.853719     0.000000
                              2.856224     0.000000
                              1.386132     0.000000
                              0.670802     0.000000
                              0.330280     0.000000
                              0.170907     0.000000
                              0.086794     1.000000
   12.1 Ag    1  3d2+       152.736742     0.000000
                             50.772485     0.000000
                             26.253589     0.000000
                             12.137022     0.000000
                              5.853719     0.000000
                              2.856224     0.000000
                              1.386132     0.000000
                              0.670802     0.000000
                              0.330280     0.000000
                              0.170907     0.000000
                              0.086794     1.000000
   13.1 Ag    1  3d0          1.172100     1.000000
   14.1 Ag    1  3d2+         1.172100     1.000000
   15.1 Ag    1  3d0          2.828034     1.000000
   16.1 Ag    1  3d2+         2.828034     1.000000
    1.2 B3u   1  2px        125.092775     0.000056    0.000025   -0.000197    0.000000
    2.2 B3u                  65.211589    -0.000572   -0.000070    0.001251    0.000000
    3.2 B3u                  34.437599     0.007388   -0.001042   -0.009154    0.000000
    4.2 B3u                  18.930704    -0.028481    0.005127    0.038201    0.000000
                             10.873415    -0.063005    0.018404    0.043097    0.000000
                              6.012172     0.024855   -0.014692   -0.029475    0.000000
                              3.372205     0.277474   -0.061307   -0.426996    0.000000
                              1.768641     0.425386   -0.128638   -0.394840    0.000000
                              0.914516     0.314145   -0.070637    0.077230    0.000000
                              0.460895     0.090422   -0.016314    1.119881    0.000000
                              0.204490     0.006977    0.380702   -0.066494    0.000000
                              0.074741     0.001154    0.523071   -0.721583    0.000000
                              0.035671     0.000303    0.235765   -0.005695    1.000000
    5.2 B3u   1  2px          1.151345     1.000000
    6.2 B3u   1  2px          5.187368     1.000000
    7.2 B3u   1  4f1+         1.696126     1.000000
    8.2 B3u   1  4f3+         1.696126     1.000000
    9.2 B3u   1  4f1+         5.078925     1.000000
   10.2 B3u   1  4f3+         5.078925     1.000000
    1.3 B2u   1  2py        125.092775     0.000056    0.000025   -0.000197    0.000000
    2.3 B2u                  65.211589    -0.000572   -0.000070    0.001251    0.000000
    3.3 B2u                  34.437599     0.007388   -0.001042   -0.009154    0.000000
    4.3 B2u                  18.930704    -0.028481    0.005127    0.038201    0.000000
                             10.873415    -0.063005    0.018404    0.043097    0.000000
                              6.012172     0.024855   -0.014692   -0.029475    0.000000
                              3.372205     0.277474   -0.061307   -0.426996    0.000000
                              1.768641     0.425386   -0.128638   -0.394840    0.000000
                              0.914516     0.314145   -0.070637    0.077230    0.000000
                              0.460895     0.090422   -0.016314    1.119881    0.000000
                              0.204490     0.006977    0.380702   -0.066494    0.000000
                              0.074741     0.001154    0.523071   -0.721583    0.000000
                              0.035671     0.000303    0.235765   -0.005695    1.000000
    5.3 B2u   1  2py          1.151345     1.000000
    6.3 B2u   1  2py          5.187368     1.000000
    7.3 B2u   1  4f1-         1.696126     1.000000
    8.3 B2u   1  4f3-         1.696126     1.000000
    9.3 B2u   1  4f1-         5.078925     1.000000
   10.3 B2u   1  4f3-         5.078925     1.000000
    1.4 B1g   1  3d2-       152.736742     0.000029   -0.000026    0.000000
    2.4 B1g                  50.772485     0.005238   -0.006329    0.000000
    3.4 B1g                  26.253589     0.029325   -0.034398    0.000000
                             12.137022     0.074901   -0.091765    0.000000
                              5.853719     0.163411   -0.201592    0.000000
                              2.856224     0.251057   -0.283930    0.000000
                              1.386132     0.287603   -0.161981    0.000000
                              0.670802     0.251862    0.128822    0.000000
                              0.330280     0.186736    0.360160    0.000000
                              0.170907     0.093570    0.277592    0.000000
                              0.086794     0.073811    0.261403    1.000000
    4.4 B1g   1  3d2-         1.172100     1.000000
    5.4 B1g   1  3d2-         2.828034     1.000000
    1.5 B1u   1  2pz        125.092775     0.000056    0.000025   -0.000197    0.000000
    2.5 B1u                  65.211589    -0.000572   -0.000070    0.001251    0.000000
    3.5 B1u                  34.437599     0.007388   -0.001042   -0.009154    0.000000
    4.5 B1u                  18.930704    -0.028481    0.005127    0.038201    0.000000
                             10.873415    -0.063005    0.018404    0.043097    0.000000
                              6.012172     0.024855   -0.014692   -0.029475    0.000000
                              3.372205     0.277474   -0.061307   -0.426996    0.000000
                              1.768641     0.425386   -0.128638   -0.394840    0.000000
                              0.914516     0.314145   -0.070637    0.077230    0.000000
                              0.460895     0.090422   -0.016314    1.119881    0.000000
                              0.204490     0.006977    0.380702   -0.066494    0.000000
                              0.074741     0.001154    0.523071   -0.721583    0.000000
                              0.035671     0.000303    0.235765   -0.005695    1.000000
    5.5 B1u   1  2pz          1.151345     1.000000
    6.5 B1u   1  2pz          5.187368     1.000000
    7.5 B1u   1  4f0          1.696126     1.000000
    8.5 B1u   1  4f2+         1.696126     1.000000
    9.5 B1u   1  4f0          5.078925     1.000000
   10.5 B1u   1  4f2+         5.078925     1.000000
    1.6 B2g   1  3d1+       152.736742     0.000029   -0.000026    0.000000
    2.6 B2g                  50.772485     0.005238   -0.006329    0.000000
    3.6 B2g                  26.253589     0.029325   -0.034398    0.000000
                             12.137022     0.074901   -0.091765    0.000000
                              5.853719     0.163411   -0.201592    0.000000
                              2.856224     0.251057   -0.283930    0.000000
                              1.386132     0.287603   -0.161981    0.000000
                              0.670802     0.251862    0.128822    0.000000
                              0.330280     0.186736    0.360160    0.000000
                              0.170907     0.093570    0.277592    0.000000
                              0.086794     0.073811    0.261403    1.000000
    4.6 B2g   1  3d1+         1.172100     1.000000
    5.6 B2g   1  3d1+         2.828034     1.000000
    1.7 B3g   1  3d1-       152.736742     0.000029   -0.000026    0.000000
    2.7 B3g                  50.772485     0.005238   -0.006329    0.000000
    3.7 B3g                  26.253589     0.029325   -0.034398    0.000000
                             12.137022     0.074901   -0.091765    0.000000
                              5.853719     0.163411   -0.201592    0.000000
                              2.856224     0.251057   -0.283930    0.000000
                              1.386132     0.287603   -0.161981    0.000000
                              0.670802     0.251862    0.128822    0.000000
                              0.330280     0.186736    0.360160    0.000000
                              0.170907     0.093570    0.277592    0.000000
                              0.086794     0.073811    0.261403    1.000000
    4.7 B3g   1  3d1-         1.172100     1.000000
    5.7 B3g   1  3d1-         2.828034     1.000000
    1.8 Au    1  4f2-         1.696126     1.000000
    2.8 Au    1  4f2-         5.078925     1.000000

 NUCLEAR CHARGE:                   16
 NUMBER OF PRIMITIVE AOS:         158
 NUMBER OF SYMMETRY AOS:          139
 NUMBER OF CONTRACTIONS:           63   (  16Ag  +  10B3u +  10B2u +   5B1g +  10B1u +   5B2g +   5B3g +   2Au  )
 NUMBER OF CORE ORBITALS:           4   (   1Ag  +   1B3u +   1B2u +   0B1g +   1B1u +   0B2g +   0B3g +   0Au  )
 NUMBER OF VALENCE ORBITALS:        6   (   3Ag  +   0B3u +   0B2u +   1B1g +   0B1u +   1B2g +   1B3g +   0Au  )


 NUCLEAR REPULSION ENERGY    0.00000000

 EXTRA SYMMETRY OF AOS IN SYMMETRY 1:   1 1 1 1 1 1 2 3 2 3   2 3 2 3 2 3
 EXTRA SYMMETRY OF AOS IN SYMMETRY 2:   1 1 1 1 1 1 2 3 2 3
 EXTRA SYMMETRY OF AOS IN SYMMETRY 3:   1 1 1 1 1 1 2 3 2 3
 EXTRA SYMMETRY OF AOS IN SYMMETRY 5:   1 1 1 1 1 1 2 3 2 3

 Eigenvalues of metric

         1 0.109E-01 0.371E-01 0.371E-01 0.394E-01 0.940E-01 0.940E-01 0.334E+00 0.428E+00
         2 0.750E-02 0.129E+00 0.244E+00 0.475E+00 0.475E+00 0.110E+01 0.152E+01 0.152E+01
         3 0.750E-02 0.129E+00 0.244E+00 0.475E+00 0.475E+00 0.110E+01 0.152E+01 0.152E+01
         4 0.371E-01 0.940E-01 0.428E+00 0.178E+01 0.266E+01
         5 0.750E-02 0.129E+00 0.244E+00 0.475E+00 0.475E+00 0.110E+01 0.152E+01 0.152E+01
         6 0.371E-01 0.940E-01 0.428E+00 0.178E+01 0.266E+01
         7 0.371E-01 0.940E-01 0.428E+00 0.178E+01 0.266E+01
         8 0.475E+00 0.152E+01


 Contracted 2-electron integrals neglected if value below      1.0D-12
 AO integral compression algorithm  1   Integral accuracy      1.0D-12

     3.408 MB (compressed) written to integral file ( 75.1%)


 NUMBER OF SORTED TWO-ELECTRON INTEGRALS:     280021.     BUFFER LENGTH:  32768
 NUMBER OF SEGMENTS:   1  SEGMENT LENGTH:     280021      RECORD LENGTH: 524288

 Memory used in sort:       0.84 MW

 SORT1 READ      606445. AND WROTE      231448. INTEGRALS IN      1 RECORDS. CPU TIME:     0.01 SEC, REAL TIME:     0.02 SEC
 SORT2 READ      231448. AND WROTE      280021. INTEGRALS IN     13 RECORDS. CPU TIME:     0.03 SEC, REAL TIME:     0.06 SEC

 FILE SIZES:   FILE 1:    22.6 MBYTE,  FILE 4:     4.2 MBYTE,   TOTAL:     26.8 MBYTE

 OPERATOR DM      FOR CENTER  0  COORDINATES:    0.000000    0.000000    0.000000
 OPERATOR EKIN    FOR CENTER  0  COORDINATES:    0.000000    0.000000    0.000000
 OPERATOR POT     FOR CENTER  0  COORDINATES:    0.000000    0.000000    0.000000


 **********************************************************************************************************************************
 DATASETS  * FILE   NREC   LENGTH (MB)   RECORD NAMES
              1      20       20.77       500      610      700      900      950      970     1000      129      960     1100   
                                          VAR    BASINP    GEOM    SYMINP    ZMAT    AOBASIS   BASIS     P2S    ABASIS      S 
                                         1400     1410     1420     1200     1210     1080     1600     1650     1300     1700   
                                         EKIN       V       ECP      H0       H01     AOSYM     SMH    MOLCAS    ERIS     OPER   

 PROGRAMS   *        TOTAL       INT
 CPU TIMES  *         1.26      1.09
 REAL TIME  *         2.87 SEC
 DISK USED  *        27.11 MB      
 **********************************************************************************************************************************


 PROGRAM * RHF-SCF (OPEN SHELL)       Authors: W. Meyer, H.-J. Werner


 NUMBER OF ELECTRONS:      10+    6-    SPACE SYMMETRY=1    SPIN SYMMETRY: Quintet 
 CONVERGENCE THRESHOLDS:    1.00E-05 (Density)    1.00E-07 (Energy)
 MAX. NUMBER OF ITERATIONS:       60
 INTERPOLATION TYPE:            DIIS
 INTERPOLATION STEPS:              2 (START)      1 (STEP)
 LEVEL SHIFTS:                 -0.60 (CLOSED) -0.30 (OPEN) 


 Singly occupied orbitals:      4.1       1.4       1.6       1.7
 
 Extra symmetries of mos in symmetry 1:   1   1   3

   Atom=FE basis=ECP10MDF_GUESS    lmin=0  lmax=2

 Orbital guess generated from atomic densities. Full valence occupancy:    4   1   1   1   1   1   1   0


 Molecular orbital dump at record        2100.2

 ITERATION    DDIFF          GRAD             ENERGY        2-EL.EN.            DIPOLE MOMENTS         DIIS   ORB.
    1      0.000D+00      0.000D+00      -122.53544302    179.580715    0.00000    0.00000    0.00000    0    start
    2      0.000D+00      0.396D-01      -122.62523993    188.418241    0.00000    0.00000    0.00000    1    diag,B
    3      0.191D-01      0.275D-01      -122.64347527    186.534592    0.00000    0.00000    0.00000    2    diag,B
    4      0.854D-02      0.622D-02      -122.64569435    186.374589    0.00000    0.00000    0.00000    3    diag,B
    5      0.388D-02      0.108D-02      -122.64593169    186.362177    0.00000    0.00000    0.00000    4    diag,B
    6      0.160D-02      0.317D-03      -122.64596933    186.329376    0.00000    0.00000    0.00000    5    diag,B
    7      0.581D-03      0.134D-03      -122.64597995    186.310856    0.00000    0.00000    0.00000    6    fixocc
    8      0.793D-03      0.644D-04      -122.64598331    186.299651    0.00000    0.00000    0.00000    7    diag,B
    9      0.958D-03      0.157D-04      -122.64598350    186.297454    0.00000    0.00000    0.00000    8    diag,B
   10      0.227D-03      0.555D-05      -122.64598352    186.297456    0.00000    0.00000    0.00000    9    orth
   11      0.289D-04      0.253D-05      -122.64598353    186.297417    0.00000    0.00000    0.00000    9    diag,B
   12      0.768D-05      0.119D-05      -122.64598353    186.297464    0.00000    0.00000    0.00000    0    orth

 Final alpha occupancy:   4   1   1   1   1   1   1   0
 Final beta  occupancy:   3   1   1   0   1   0   0   0

 !RHF STATE 1.1 Energy               -122.645983526938
 Nuclear energy                         0.00000000
 One-electron energy                 -215.79471565
 Two-electron energy                   93.14873212
 Virial quotient                       -1.70645485
 !RHF STATE 1.1 Dipole moment           0.00000000     0.00000000     0.00000000
 Dipole moment /Debye                   0.00000000     0.00000000     0.00000000
 

 !RHF expec          <1.1|EKIN|1.1>    71.871801189673
 
 !RHF expec           <1.1|POT|1.1>   -18.865559888919

 ELECTRON ORBITALS
 =================


   Orb  Occ    Energy  Couls-En    Coefficients

                                   1 1s      1 1s      1 1s      1 1s      1 1s      1 1s      1 3d0     1 3d2+    1 3d0     1 3d2+ 
                                   1 3d0     1 3d2+    1 3d0     1 3d2+    1 3d0     1 3d2+ 

   1.1   2    -4.2764  -21.5483  0.999963  0.000165 -0.000089 -0.000117  0.000070 -0.000023 -0.003816 -0.000121 -0.001884  0.000047
                                 0.001068 -0.000007  0.000432 -0.000013  0.001963 -0.000029

   2.1   2    -0.2620   -5.8768  0.000554  1.001088  0.001358 -0.001529 -0.000432  0.000199  0.016376  0.000075  0.009550 -0.000151
                                 0.003722 -0.000066 -0.003021  0.000050 -0.000560  0.000008

   3.1   2    -0.5433  -13.0349  0.000142 -0.000014 -0.000003  0.000002  0.000010 -0.000004 -0.007733  1.000294  0.000410 -0.053111
                                 0.000370 -0.047916 -0.000128  0.016644  0.000019 -0.002415

   4.1   +    -0.7028  -13.4823  0.002134 -0.011796 -0.001483 -0.001057 -0.000927  0.000397  0.978605  0.007566 -0.101081 -0.000775
                                -0.049715 -0.000385  0.033449  0.000259  0.001425  0.000010

                                   1 2px     1 2px     1 2px     1 2px     1 2px     1 2px     1 4f1+    1 4f3+    1 4f1+    1 4f3+ 


   1.2   2    -2.7616  -18.4265  1.000067  0.015361  0.015106 -0.002595 -0.000280  0.000751  0.001515  0.004284  0.000708  0.001439

                                   1 2py     1 2py     1 2py     1 2py     1 2py     1 2py     1 4f1-    1 4f3-    1 4f1-    1 4f3- 


   1.3   2    -2.7617  -18.4269  1.000040  0.015299  0.015061 -0.002582 -0.000244  0.000737  0.001560 -0.004338  0.000722 -0.001463

                                   1 3d2-    1 3d2-    1 3d2-    1 3d2-    1 3d2- 

   1.4   +    -0.6597  -13.3780  0.983916 -0.089962 -0.050159  0.029791  0.000576

                                   1 2pz     1 2pz     1 2pz     1 2pz     1 2pz     1 2pz     1 4f0     1 4f2+    1 4f0     1 4f2+ 


   1.5   2    -2.7704  -18.4454  0.998705  0.012107  0.012584 -0.001925  0.001615 -0.000024  0.003251 -0.000069  0.001340 -0.000026

                                   1 3d1+    1 3d1+    1 3d1+    1 3d1+    1 3d1+ 

   1.6   +    -0.6917  -13.4564  0.980061 -0.098230 -0.049859  0.032539  0.001190

                                   1 3d1-    1 3d1-    1 3d1-    1 3d1-    1 3d1- 

   1.7   +    -0.6923  -13.4577  0.979994 -0.098367 -0.049853  0.032587  0.001201

 HOMO      1.4    -0.659701 =     -17.9514eV
 LUMO      2.5     0.034022 =       0.9258eV
 LUMO-HOMO         0.693723 =      18.8772eV


 **********************************************************************************************************************************
 DATASETS  * FILE   NREC   LENGTH (MB)   RECORD NAMES
              1      20       20.77       500      610      700      900      950      970     1000      129      960     1100   
                                          VAR    BASINP    GEOM    SYMINP    ZMAT    AOBASIS   BASIS     P2S    ABASIS      S 
                                         1400     1410     1420     1200     1210     1080     1600     1650     1300     1700   
                                         EKIN       V       ECP      H0       H01     AOSYM     SMH    MOLCAS    ERIS     OPER   

              2       4        2.77       700     1000      520     2100   
                                         GEOM     BASIS   MCVARS     RHF  

 PROGRAMS   *        TOTAL        HF       INT
 CPU TIMES  *         1.31      0.05      1.09
 REAL TIME  *         3.13 SEC
 DISK USED  *        27.11 MB      
 **********************************************************************************************************************************
 SETTING SCF(I)         =      -122.64598353  AU                              
 SETTING _CC_NORM_MAX   =         2.00000000                                  


 PROGRAM * CI (Multireference internally contracted CI)     Authors: H.-J. Werner, P.J. Knowles, 1987


 Convergence thresholds:  THRVAR = 1.00D-08  THRDEN = 1.00D-06

 Number of optimized states:  1  Roots:   1
 Number of reference states:  1  Roots:   1

 Reference symmetry:                   1   Quintet 
 Number of electrons:                 16
 Maximum number of shells:             3
 Maximum number of spin couplings:    20

 Reference space:        1 conf        1 CSFs
 N elec internal:      115 conf      115 CSFs
 N-1 el internal:      166 conf      430 CSFs
 N-2 el internal:       51 conf      456 CSFs

 Number of electrons in valence space:                     16
 Maximum number of open shell orbitals in reference space:  4
 Maximum number of open shell orbitals in internal spaces:  8


 Number of closed-shell orbitals:   6 (   3   1   1   0   1   0   0   0 )
 Number of active  orbitals:        4 (   1   0   0   1   0   1   1   0 )
 Number of external orbitals:      53 (  12   9   9   4   9   4   4   2 )

 Molecular orbitals read from record     2100.2  Type=RHF/CANONICAL (state 1.1)

 Integral transformation finished. Total CPU:   0.00 sec, npass=  1  Memory used:   0.09 MW

 Number of p-space configurations:   1

 Reference wavefunction optimized for reference space (refopt=1)

 State     Reference Energy 
   1        -122.64598353

 Number of blocks in overlap matrix:    90   Smallest eigenvalue:  0.10D+01
 Number of N-2 electron functions:      90
 Number of N-1 electron functions:     430

 Number of internal configurations:                   10
 Number of singly external configurations:          2892
 Number of doubly external configurations:         16560
 Total number of contracted configurations:        19462
 Total number of uncontracted configurations:      86812

 Diagonal Coupling coefficients finished.               Storage:   35206 words, CPU-Time:      0.00 seconds.
 Energy denominators for pairs finished in 1 passes.    Storage:   22574 words, CPU-time:      0.00 seconds.

  ITER. STATE  ROOT     SQ.NORM     CORR.ENERGY   TOTAL ENERGY   ENERGY CHANGE       DEN1      VAR(S)    VAR(P)      TIME
    1     1     1     1.00000000     0.00000000  -122.64598353     0.00000000    -0.60067314  0.26D-01  0.92D-01     0.03
    2     1     1     1.07747841    -0.49977421  -123.14575774    -0.49977421    -0.01099066  0.15D-02  0.16D-02     0.29
    3     1     1     1.07103739    -0.51041364  -123.15639717    -0.01063944    -0.00033720  0.27D-04  0.87D-04     0.56
    4     1     1     1.07071567    -0.51074921  -123.15673274    -0.00033557    -0.00002016  0.68D-05  0.23D-05     0.79
    5     1     1     1.07085776    -0.51076990  -123.15675342    -0.00002069    -0.00000114  0.22D-06  0.17D-06     0.95
    6     1     1     1.07092610    -0.51077106  -123.15675459    -0.00000116    -0.00000006  0.15D-07  0.72D-08     1.19
    7     1     1     1.07093920    -0.51077113  -123.15675466    -0.00000007    -0.00000000  0.28D-09  0.43D-09     1.40


 =====================================
 Analysis of CPU times by interactions
 =====================================

       I      S      P

 I   0.0%
 S   1.4%  68.6%
 P   0.7%  12.1%   7.9%

 Initialization:   1.4%
 Other:            7.9%

 Total CPU:        1.4 seconds
 =====================================



 Reference coefficients greater than 0.0500000
 =============================================
 222/22/2//           0.9653634



 RESULTS FOR STATE 1.1
 =====================

 Coefficient of reference function:   C(0) = 0.96536335 (fixed)   0.96536335 (relaxed)

 Energy contributions of configuration classes

 CLASS          SQ.NORM        ECORR1        ECORR2
 +++++++++++++++++++++++++++++++++++++++++++++++++++
 Internals    0.00196735   -0.01235447   -0.01244992
 Singles      0.01774872   -0.11581766   -0.11638136
 Pairs        0.05333004   -0.38259900   -0.38193986
 Total        1.07304611   -0.51077113   -0.51077113
 +++++++++++++++++++++++++++++++++++++++++++++++++++


 Reference energy                    -122.64598353
 Nuclear energy                         0.00000000
 Kinetic energy                        72.25959330
 One electron energy                 -215.33175213
 Two electron energy                   92.17499747
 Virial quotient                       -1.70436546
 Correlation energy                    -0.51077113
 !CI(SD) STATE 1.1 Energy            -123.156754655541

 Properties without orbital relaxation:

 !CI(SD) STATE 1.1 Dipole moment        0.00000000     0.00000000     0.00000000
 Dipole moment /Debye                   0.00000000     0.00000000     0.00000000

 Cluster corrected energies          -123.19406450 (Davidson, fixed reference)
 Cluster corrected energies          -123.19406450 (Davidson, relaxed reference)

 Cluster corrected energies          -123.18941105 (Pople, fixed reference)
 Cluster corrected energies          -123.18941105 (Pople, relaxed reference)

 

 !CI(SD) expec       <1.1|EKIN|1.1>    72.259593296457
 
 !CI(SD) expec        <1.1|POT|1.1>   -18.863776605788


 **********************************************************************************************************************************
 DATASETS  * FILE   NREC   LENGTH (MB)   RECORD NAMES
              1      21       21.17       500      610      700      900      950      970     1000      129      960     1100   
                                          VAR    BASINP    GEOM    SYMINP    ZMAT    AOBASIS   BASIS     P2S    ABASIS      S 
                                         1400     1410     1420     1200     1210     1080     1600     1650     1300     1700   
                                         EKIN       V       ECP      H0       H01     AOSYM     SMH    MOLCAS    ERIS     OPER   
                                         1380   
                                         JKOP   

              2       4        2.77       700     1000      520     2100   
                                         GEOM     BASIS   MCVARS     RHF  

 PROGRAMS   *        TOTAL        CI        HF       INT
 CPU TIMES  *         2.76      1.45      0.05      1.09
 REAL TIME  *         5.15 SEC
 DISK USED  *        27.28 MB      
 **********************************************************************************************************************************
 SETTING POSTHF(I)      =      -123.15675466  AU                              
                                                                                                                                                                                                                                                                

         SCF            POSTHF       EKIN           POT
    -122.6459835   -123.1567547   72.25959330   -18.86377661
                                                  

 CI/USERDEF energy=   -123.156754655541

        CI              HF-SCF  
   -123.15675466   -122.64598353
 **********************************************************************************************************************************
 Variable memory released
