TACC:  Starting up job 2550357 
TACC:  Starting parallel tasks... 
  Input file(s): Fe.dump.qmc.in-wfj.xml 

=====================================================
                    QMCPACK 3.5.0 

       (c) Copyright 2003-  QMCPACK developers

                    Please cite:
 J. Kim et al. J. Phys. Cond. Mat. 30 195901 (2018)
      https://doi.org/10.1088/1361-648X/aab9c3

  Git branch: develop
  Last git commit: e3c70460324872a216574b301e62286cc337f9dc
  Last git commit date: Thu Nov 29 12:27:17 2018 -0500
  Last git commit subject: Merge pull request #1188 from ye-luo/fix-bgq-builds
=====================================================
  Global options 

  MPI Nodes             = 1088
  MPI Nodes per group   = 1088
  MPI Group ID          = 0
  OMP 1st level threads = 1
  OMP nested threading disabled or only 1 thread on the 2nd level

  Precision used in this calculation, see definitions in the manual:
  Base precision      = double
  Full precision      = double

  Structure-of-arrays (SoA) optimization enabled

  Input XML = Fe.dump.qmc.in-wfj.xml

  Project = Fe.dump
  date    = 2018-12-02 01:27:26 CST
  host    = c455-003.stampede2.tacc.utexas.edu

 Random Number
 -------------
  Offset for the random number seeds based on time: 350

  Range of prime numbers to use as seeds over processors and threads = 2377-12011


 Particle Set 
 ------------
  Name: ion0
  All the species have the same mass 1
  Particle set size: 1

 Particle Set 
 ------------
  Name: e
  All the species have the same mass 1
  Particle set size: 16

 Wavefunction setup: 
 ------------------- 
  Name: psi0
  Created SPOSet builder named 'LCAOBSet' of type molecularorbital
  LCAO: SoaAtomicBasisSet<MultiQuintic,0>

  Distance table for similar particles (A-A):
    source/target: e
    Using structure-of-arrays (SoA) data layout
    Distance computations use open boundary conditions in 3D.


  Distance table for dissimilar particles (A-B):
    source: ion0  target: e
    Using structure-of-arrays (SoA) data layout
    Distance computations use open boundary conditions in 3D.

  AO BasisSet for Fe
   Angular momentum expanded in cartesian functions x^lx y^ly z^lz according to Gamess
Using log grid with default values: ri = 1e-06 rf = 100 npts = 1001
   R(n,l,m,s) 0 0 0 0
   R(n,l,m,s) 1 0 0 0
   R(n,l,m,s) 2 0 0 0
   R(n,l,m,s) 3 0 0 0
   R(n,l,m,s) 4 0 0 0
   R(n,l,m,s) 5 0 0 0
   R(n,l,m,s) 6 0 0 0
   R(n,l,m,s) 7 0 0 0
   R(n,l,m,s) 8 1 0 0
   R(n,l,m,s) 9 1 0 0
   R(n,l,m,s) 10 1 0 0
   R(n,l,m,s) 11 1 0 0
   R(n,l,m,s) 12 1 0 0
   R(n,l,m,s) 13 1 0 0
   R(n,l,m,s) 14 1 0 0
   R(n,l,m,s) 15 1 0 0
   R(n,l,m,s) 16 1 0 0
   R(n,l,m,s) 17 2 0 0
   R(n,l,m,s) 18 2 0 0
   R(n,l,m,s) 19 2 0 0
   R(n,l,m,s) 20 2 0 0
   R(n,l,m,s) 21 2 0 0
   R(n,l,m,s) 22 2 0 0
   R(n,l,m,s) 23 2 0 0
   R(n,l,m,s) 24 3 0 0
   R(n,l,m,s) 25 3 0 0
   R(n,l,m,s) 26 3 0 0
   R(n,l,m,s) 27 3 0 0
   R(n,l,m,s) 28 3 0 0
   R(n,l,m,s) 29 4 0 0
   R(n,l,m,s) 30 4 0 0
   R(n,l,m,s) 31 4 0 0
   R(n,l,m,s) 32 4 0 0
   R(n,l,m,s) 33 5 0 0
   R(n,l,m,s) 34 5 0 0
   R(n,l,m,s) 35 5 0 0
Expanding Ylm (angular function) according to Gamess using cartesian gaussians
Adding 1 cartesian gaussian orbitals for l= 0
Adding 1 cartesian gaussian orbitals for l= 0
Adding 1 cartesian gaussian orbitals for l= 0
Adding 1 cartesian gaussian orbitals for l= 0
Adding 1 cartesian gaussian orbitals for l= 0
Adding 1 cartesian gaussian orbitals for l= 0
Adding 1 cartesian gaussian orbitals for l= 0
Adding 1 cartesian gaussian orbitals for l= 0
Adding 3 cartesian gaussian orbitals for l= 1
Adding 3 cartesian gaussian orbitals for l= 1
Adding 3 cartesian gaussian orbitals for l= 1
Adding 3 cartesian gaussian orbitals for l= 1
Adding 3 cartesian gaussian orbitals for l= 1
Adding 3 cartesian gaussian orbitals for l= 1
Adding 3 cartesian gaussian orbitals for l= 1
Adding 3 cartesian gaussian orbitals for l= 1
Adding 3 cartesian gaussian orbitals for l= 1
Adding 6 cartesian gaussian orbitals for l= 2
Adding 6 cartesian gaussian orbitals for l= 2
Adding 6 cartesian gaussian orbitals for l= 2
Adding 6 cartesian gaussian orbitals for l= 2
Adding 6 cartesian gaussian orbitals for l= 2
Adding 6 cartesian gaussian orbitals for l= 2
Adding 6 cartesian gaussian orbitals for l= 2
Adding 10 cartesian gaussian orbitals for l= 3
Adding 10 cartesian gaussian orbitals for l= 3
Adding 10 cartesian gaussian orbitals for l= 3
Adding 10 cartesian gaussian orbitals for l= 3
Adding 10 cartesian gaussian orbitals for l= 3
Adding 15 cartesian gaussian orbitals for l= 4
Adding 15 cartesian gaussian orbitals for l= 4
Adding 15 cartesian gaussian orbitals for l= 4
Adding 15 cartesian gaussian orbitals for l= 4
Adding 21 cartesian gaussian orbitals for l= 5
Adding 21 cartesian gaussian orbitals for l= 5
Adding 21 cartesian gaussian orbitals for l= 5
   Maximum Angular Momentum  = 5
   Number of Radial functors = 36
   Basis size                = 250

Creating SPOSet in SlaterDetBuilder::put(xmlNodePtr cur).
spo_name = spo-up
  Building SPOSet 'spo-up' with 'LCAOBSet' basis set.
Creating SPOSet in SlaterDetBuilder::put(xmlNodePtr cur).
spo_name = spo-dn
  Building SPOSet 'spo-dn' with 'LCAOBSet' basis set.
Using Bryan's algorithm for MultiSlaterDeterminant expansion. 
Creating base determinant (up) for MSD expansion. 
Creating base determinant (down) for MSD expansion. 
Found determinant list. 
Reading CI expansion.
Found 13619 terms in the MSD expansion.
Norm of ci vector (sum of ci^2): 1
Norm of qchem ci vector (sum of qchem_ci^2): 1
Found 6187 unique up determinants.
Found 2138 unique down determinants.
Number of terms in pairs array: 617
Number of terms in pairs array: 353
CI coefficients are not optimizable. 
  FermionWF = MultiSlaterDeterminantFast
  RadialJastrowBuilder adds a functor with cusp = -0.25
 size = 10 parameters 
 cusp = -0.25
 rcut = 10
Parameter     Name      Value
uu_0 0 1 1  ON 0
uu_1 0 1 1  ON 1
uu_2 0 1 1  ON 2
uu_3 0 1 1  ON 3
uu_4 0 1 1  ON 4
uu_5 0 1 1  ON 5
uu_6 0 1 1  ON 6
uu_7 0 1 1  ON 7
uu_8 0 1 1  ON 8
uu_9 0 1 1  ON 9
  RadialJastrowBuilder adds a functor with cusp = -0.5
 size = 10 parameters 
 cusp = -0.5
 rcut = 10
Parameter     Name      Value
ud_0 0 1 1  ON 0
ud_1 0 1 1  ON 1
ud_2 0 1 1  ON 2
ud_3 0 1 1  ON 3
ud_4 0 1 1  ON 4
ud_5 0 1 1  ON 5
ud_6 0 1 1  ON 6
ud_7 0 1 1  ON 7
ud_8 0 1 1  ON 8
ud_9 0 1 1  ON 9
 size = 10 parameters 
 cusp = 0
 rcut = 10
Parameter     Name      Value
eFe_0 0 1 1  ON 0
eFe_1 0 1 1  ON 1
eFe_2 0 1 1  ON 2
eFe_3 0 1 1  ON 3
eFe_4 0 1 1  ON 4
eFe_5 0 1 1  ON 5
eFe_6 0 1 1  ON 6
eFe_7 0 1 1  ON 7
eFe_8 0 1 1  ON 8
eFe_9 0 1 1  ON 9
Expected 26 parameters, but found 0 in PolynomialFunctor3D.
Parameter     Name      Value
uuFe_0 0 1 1  ON 0
uuFe_1 0 1 1  ON 1
uuFe_2 0 1 1  ON 2
uuFe_3 0 1 1  ON 3
uuFe_4 0 1 1  ON 4
uuFe_5 0 1 1  ON 5
uuFe_6 0 1 1  ON 6
uuFe_7 0 1 1  ON 7
uuFe_8 0 1 1  ON 8
uuFe_9 0 1 1  ON 9
uuFe_10 0 1 1  ON 10
uuFe_11 0 1 1  ON 11
uuFe_12 0 1 1  ON 12
uuFe_13 0 1 1  ON 13
uuFe_14 0 1 1  ON 14
uuFe_15 0 1 1  ON 15
uuFe_16 0 1 1  ON 16
uuFe_17 0 1 1  ON 17
uuFe_18 0 1 1  ON 18
uuFe_19 0 1 1  ON 19
uuFe_20 0 1 1  ON 20
uuFe_21 0 1 1  ON 21
uuFe_22 0 1 1  ON 22
uuFe_23 0 1 1  ON 23
uuFe_24 0 1 1  ON 24
uuFe_25 0 1 1  ON 25
Expected 26 parameters, but found 0 in PolynomialFunctor3D.
Parameter     Name      Value
udFe_0 0 1 1  ON 0
udFe_1 0 1 1  ON 1
udFe_2 0 1 1  ON 2
udFe_3 0 1 1  ON 3
udFe_4 0 1 1  ON 4
udFe_5 0 1 1  ON 5
udFe_6 0 1 1  ON 6
udFe_7 0 1 1  ON 7
udFe_8 0 1 1  ON 8
udFe_9 0 1 1  ON 9
udFe_10 0 1 1  ON 10
udFe_11 0 1 1  ON 11
udFe_12 0 1 1  ON 12
udFe_13 0 1 1  ON 13
udFe_14 0 1 1  ON 14
udFe_15 0 1 1  ON 15
udFe_16 0 1 1  ON 16
udFe_17 0 1 1  ON 17
udFe_18 0 1 1  ON 18
udFe_19 0 1 1  ON 19
udFe_20 0 1 1  ON 20
udFe_21 0 1 1  ON 21
udFe_22 0 1 1  ON 22
udFe_23 0 1 1  ON 23
udFe_24 0 1 1  ON 24
udFe_25 0 1 1  ON 25
  QMCHamiltonian::addOperator Kinetic to H, physical Hamiltonian 
  QMCHamiltonian::addOperator ElecElec to H, physical Hamiltonian 
QMCHamiltonian::addOperatorType added type coulomb named ElecElec
  CoulombAA for ion0 is not created.  Number of particles == 1 and nonPeriodic

  ECPotential builder for pseudopotential 

  Adding pseudopotential for Fe
   Linear grid  ri=0 rf=10 npts = 10001
    ECPComponentBuilder::buildSemiLocalAndLocal 
    Assuming Hartree unit
   Number of angular momentum channels 3
   Maximum angular momentum channel 2
   Creating a Linear Grid Rmax=1.29
  Using global grid with delta = 0.001
   Making L=2 a local potential with a radial cutoff of 9.999
    Non-local pseudopotential parameters
    Maximum angular mementum = 1
    Number of non-local channels = 2
       l(0)=0
       l(1)=1
    Cutoff radius = 1.29
    Spherical grids and weights: 
                        1                 0                 0       0.08333333333
                       -1   1.224646799e-16                 0       0.08333333333
             0.4472135955       0.894427191                 0       0.08333333333
            -0.4472135955      0.7236067977      0.5257311121       0.08333333333
             0.4472135955      0.2763932023      0.8506508084       0.08333333333
            -0.4472135955     -0.2763932023      0.8506508084       0.08333333333
             0.4472135955     -0.7236067977      0.5257311121       0.08333333333
            -0.4472135955      -0.894427191   1.095357397e-16       0.08333333333
             0.4472135955     -0.7236067977     -0.5257311121       0.08333333333
            -0.4472135955     -0.2763932023     -0.8506508084       0.08333333333
             0.4472135955      0.2763932023     -0.8506508084       0.08333333333
            -0.4472135955      0.7236067977     -0.5257311121       0.08333333333
    Maximum cutoff radius 1.29
  QMCHamiltonian::addOperator LocalECP to H, physical Hamiltonian 

  Using NonLocalECP potential 
    Maximum grid on a sphere for NonLocalECPotential: 12
  QMCHamiltonian::addOperator NonLocalECP to H, physical Hamiltonian 
QMCHamiltonian::addOperatorType added type pseudo named PseudoPot

  QMCHamiltonian::add2WalkerProperty added
    4 to P::PropertyList 
    0 to P::Collectables 
    starting Index of the observables in P::PropertyList = 9
ParticleSetPool::randomize 
<init source="ion0" target="e">
</init>
  Initialization Execution time = 2.705 secs
=========================================================
 Summary of QMC systems 
=========================================================
ParticleSetPool has: 

  ParticleSet e : 0 10 16 

    16

    u -4.1449804392e+00 -1.2758932378e+00 -8.2964070625e-01
    u -1.7170628523e+00  2.7068082729e+00  3.4725655791e+00
    u  3.8663036286e+00  3.5148445601e+00 -1.4971980644e+00
    u -2.5451854142e-01 -1.5474811384e-01  1.7940929510e+00
    u -3.2256009774e+00  1.2824976416e+00 -1.5275150021e+00
    u -1.3510500172e+00  3.9054597396e+00  2.4607950314e-01
    u  1.9071019133e+00  3.4966312099e+00 -6.1422096974e-01
    u  1.9659594502e+00 -8.6928550984e-01 -2.5156774214e+00
    u  1.4761888836e+00 -2.3488642529e-01  6.9249789047e-01
    u  3.3498166969e+00 -2.9410067360e+00  3.6250766099e+00
    (... and 6 more particle positions ...)

  ParticleSet ion0 : 0 1 

    1

    Fe  0.0000000000e+00  0.0000000000e+00  0.0000000000e+00

  Hamiltonian h0
  Kinetic         Kinetic energy
  ElecElec        CoulombAA source/target e

  LocalECP        LocalECPotential: ion0
  NonLocalECP     NonLocalECPotential: ion0

=========================================================
  Start VMC
  File Root Fe.dump.s000 append = no 
=========================================================
  Adding 1 walkers to 0 existing sets
  Total number of walkers: 1.0880000000e+03
  Total weight: 1.0880000000e+03
  Resetting Properties of the walkers 1 x 13

<vmc function="put">
  qmc_counter=0  my_counter=0
  time step      = 1.0000000000e-01
  blocks         = 10
  steps          = 1
  substeps       = 5
  current        = 0
  target samples = 1.0880000000e+03
  walkers/mpi    = 1

  stepsbetweensamples = 10
<parameter name="blocks" condition="int">10</parameter>
<parameter name="blocks_between_recompute" condition="int">0</parameter>
<parameter name="check_properties" condition="int">100</parameter>
<parameter name="checkproperties" condition="int">100</parameter>
<parameter name="current" condition="int">0</parameter>
<parameter name="dmcwalkersperthread" condition="real">1.0000000000e+00</parameter>
<parameter name="maxcpusecs" condition="real">3.6000000000e+05</parameter>
<parameter name="record_configs" condition="int">0</parameter>
<parameter name="record_walkers" condition="int">10</parameter>
<parameter name="recordconfigs" condition="int">0</parameter>
<parameter name="recordwalkers" condition="int">10</parameter>
<parameter name="rewind" condition="int">0</parameter>
<parameter name="samples" condition="real">1.0880000000e+03</parameter>
<parameter name="samplesperthread" condition="real">1.0000000000e+00</parameter>
<parameter name="steps" condition="int">1</parameter>
<parameter name="stepsbetweensamples" condition="int">10</parameter>
<parameter name="store_configs" condition="int">0</parameter>
<parameter name="storeconfigs" condition="int">0</parameter>
<parameter name="sub_steps" condition="int">5</parameter>
<parameter name="substeps" condition="int">5</parameter>
<parameter name="tau" condition="au">1.0000000000e-01</parameter>
<parameter name="time_step" condition="au">1.0000000000e-01</parameter>
<parameter name="timestep" condition="au">1.0000000000e-01</parameter>
<parameter name="use_drift" condition="string">no</parameter>
<parameter name="usedrift" condition="string">no</parameter>
<parameter name="walkers" condition="int">1</parameter>
<parameter name="warmup_steps" condition="int">20</parameter>
<parameter name="warmupsteps" condition="int">20</parameter>
  DumpConfig==false Nothing (configurations, state) will be saved.
  Walker Samples are dumped every 10 steps.
</vmc>
  Initial partition of walkers 0 1 

  Using Particle by Particle moves
  Walker moves without drift
  Total Sample Size   =1088
  Walker distribution on root = 0 1 
  Using Locality Approximation
===== Memory Usage after the buffer registration =====
Available memory on node 0, free + buffers : 77662 MB
Memory footprint by rank 0 on node 0       : 135 MB
==================================================
  Anonymous Buffer size per walker : 2572456 Bytes.
MEMORY increase 2 MB VMC::resetRun
====================================================
  SimpleFixedNodeBranch::finalize after a VMC block
    QMC counter        = 0
    time step          = 0.1
    reference energy   = -123.103
    reference variance = 6.26533
====================================================
  QMC Execution time = 6.1758e+00 secs 
Loop execution max-interations = 4

=========================================================
  Start QMCFixedSampleLinearOptimize
  File Root Fe.dump.s001 append = no 
=========================================================
  Skip QMCDriver::putQMCInfo 
  Resetting Properties of the walkers 1 x 13

=========================================================
  Start VMC
  File Root Fe.dump.s001 append = no 
=========================================================
  Using the current 1 walkers.
  Total number of walkers: 1.0880e+03
  Total weight: 1.0880e+03
  Resetting Properties of the walkers 1 x 13

<vmc function="put">
  qmc_counter=0  my_counter=0
  time step      = 5.0000e-01
  blocks         = 20
  steps          = 1
  substeps       = 5
  current        = 0
  target samples = 8.0000e+03
  walkers/mpi    = 1

  stepsbetweensamples = 2
<parameter name="blocks" condition="int">20</parameter>
<parameter name="blocks_between_recompute" condition="int">0</parameter>
<parameter name="check_properties" condition="int">100</parameter>
<parameter name="checkproperties" condition="int">100</parameter>
<parameter name="current" condition="int">0</parameter>
<parameter name="dmcwalkersperthread" condition="real">8.0000e+00</parameter>
<parameter name="maxcpusecs" condition="real">3.6000e+05</parameter>
<parameter name="record_configs" condition="int">0</parameter>
<parameter name="record_walkers" condition="int">2</parameter>
<parameter name="recordconfigs" condition="int">0</parameter>
<parameter name="recordwalkers" condition="int">2</parameter>
<parameter name="rewind" condition="int">0</parameter>
<parameter name="samples" condition="real">8.0000e+03</parameter>
<parameter name="samplesperthread" condition="real">8.0000e+00</parameter>
<parameter name="steps" condition="int">1</parameter>
<parameter name="stepsbetweensamples" condition="int">2</parameter>
<parameter name="store_configs" condition="int">0</parameter>
<parameter name="storeconfigs" condition="int">0</parameter>
<parameter name="sub_steps" condition="int">5</parameter>
<parameter name="substeps" condition="int">5</parameter>
<parameter name="tau" condition="au">5.0000e-01</parameter>
<parameter name="time_step" condition="au">5.0000e-01</parameter>
<parameter name="timestep" condition="au">5.0000e-01</parameter>
<parameter name="use_drift" condition="string">no</parameter>
<parameter name="usedrift" condition="string">no</parameter>
<parameter name="walkers" condition="int">1</parameter>
<parameter name="warmup_steps" condition="int">2</parameter>
<parameter name="warmupsteps" condition="int">2</parameter>
  DumpConfig==false Nothing (configurations, state) will be saved.
  Walker Samples are dumped every 2 steps.
</vmc>
    Restarting, cummulative properties:
      energy     = -1.2310e+02
      variance   = 0.0000e+00
      r2accepted = 1.0000e-10
      r2proposed = 1.0000e-10
 Using QMCCostFunction::QMCCostFunction
 Using Default Cost Function: Cost = <|E-E_ff|^2>
  EstimatorManagerBase::add replace LocalEnergy estimator.
<optimization-report>
<vmc stage="main" blocks="20">
  Cannot make clones again. Use existing 1 clones
  Initial partition of walkers 0 1 

  Using Particle by Particle moves
  Walker moves without drift
  Total Sample Size   =8704
  Walker distribution on root = 0 1 
  Using Locality Approximation
===== Memory Usage after the buffer registration =====
Available memory on node 0, free + buffers : 77661 MB
Memory footprint by rank 0 on node 0       : 136 MB
==================================================
  Anonymous Buffer size per walker : 2572456 Bytes.
MEMORY increase 2 MB VMC::resetRun
====================================================
  SimpleFixedNodeBranch::finalize after a VMC block
    QMC counter        = 1
    time step          = 0.5
    reference energy   = -123.291
    reference variance = 3.79954
====================================================
  Execution time = 5.1423e+00
</vmc>
<opt stage="setup">
  <log>
   Reading configurations from h5FileRoot Fe.dump.s001
  QMCCostFunction is created with 1 threads.
  Using Nonlocal PP in Opt: no
   Number of samples loaded to each thread : 8 
  VMC Eavg = -1.2322e+02
  VMC Evar = 1.9691e+00
  Total weights = 8.7040e+03
  Execution time = 1.2171e+00
  </log>
</opt>
<opt stage="main" walkers="8704">
  <log>

*****************************************
Building overlap and Hamiltonian matrices
*****************************************

Among totally 82 optimized parameters, largest LM parameter change : 3.1827e-01 at parameter 20

******************************************************************************
Init Cost =  -1.1070e+02    New Cost =  -1.1081e+02  Delta Cost =  -1.1111e-01
******************************************************************************

The new set of parameters is valid. Updating the trial wave function!

*****************************************************************************
Applying the update for shift_i =   1.0000e-02     and shift_s =   2.5000e-01
*****************************************************************************
  Execution time = 6.4819e+00
  </log>
  <optVariables href="Fe.dump.s001.opt.xml">
uu_0 1.6918e-01 1 1  ON 0
uu_1 4.8930e-02 1 1  ON 1
uu_2 2.2268e-02 1 1  ON 2
uu_3 1.2399e-02 1 1  ON 3
uu_4 8.6788e-03 1 1  ON 4
uu_5 1.5050e-02 1 1  ON 5
uu_6 1.5268e-02 1 1  ON 6
uu_7 3.4055e-02 1 1  ON 7
uu_8 3.8878e-02 1 1  ON 8
uu_9 1.3241e-02 1 1  ON 9
ud_0 1.5618e-01 1 1  ON 10
ud_1 2.4830e-02 1 1  ON 11
ud_2 -7.0827e-03 1 1  ON 12
ud_3 -1.5165e-02 1 1  ON 13
ud_4 -2.1654e-02 1 1  ON 14
ud_5 -2.3786e-02 1 1  ON 15
ud_6 -1.7773e-02 1 1  ON 16
ud_7 -1.8831e-02 1 1  ON 17
ud_8 -2.1272e-02 1 1  ON 18
ud_9 -6.8321e-03 1 1  ON 19
eFe_0 -3.1827e-01 1 1  ON 20
eFe_1 -1.3957e-01 1 1  ON 21
eFe_2 -3.3334e-02 1 1  ON 22
eFe_3 1.0802e-01 1 1  ON 23
eFe_4 1.7327e-01 1 1  ON 24
eFe_5 1.3344e-01 1 1  ON 25
eFe_6 9.1009e-02 1 1  ON 26
eFe_7 7.6017e-03 1 1  ON 27
eFe_8 1.5574e-02 1 1  ON 28
eFe_9 -2.6896e-02 1 1  ON 29
uuFe_0 -4.2244e-04 1 1  ON 30
uuFe_1 -7.1887e-04 1 1  ON 31
uuFe_2 7.1867e-03 1 1  ON 32
uuFe_3 -3.1447e-04 1 1  ON 33
uuFe_4 -1.3658e-03 1 1  ON 34
uuFe_5 -3.2669e-04 1 1  ON 35
uuFe_6 -5.2560e-04 1 1  ON 36
uuFe_7 4.7810e-03 1 1  ON 37
uuFe_8 1.4336e-02 1 1  ON 38
uuFe_9 -3.2135e-04 1 1  ON 39
uuFe_10 1.8517e-03 1 1  ON 40
uuFe_11 -9.2972e-03 1 1  ON 41
uuFe_12 -6.3928e-03 1 1  ON 42
uuFe_13 3.3816e-03 1 1  ON 43
uuFe_14 7.4487e-03 1 1  ON 44
uuFe_15 -2.6941e-04 1 1  ON 45
uuFe_16 -8.7799e-03 1 1  ON 46
uuFe_17 1.4593e-02 1 1  ON 47
uuFe_18 -8.2213e-03 1 1  ON 48
uuFe_19 6.7234e-03 1 1  ON 49
uuFe_20 5.3332e-04 1 1  ON 50
uuFe_21 1.4022e-03 1 1  ON 51
uuFe_22 -1.1809e-03 1 1  ON 52
uuFe_23 -2.6030e-04 1 1  ON 53
uuFe_24 -1.6792e-03 1 1  ON 54
uuFe_25 5.7119e-04 1 1  ON 55
udFe_0 6.4707e-04 1 1  ON 56
udFe_1 9.5730e-04 1 1  ON 57
udFe_2 1.1020e-02 1 1  ON 58
udFe_3 -1.1887e-03 1 1  ON 59
udFe_4 -2.8957e-03 1 1  ON 60
udFe_5 -7.6843e-04 1 1  ON 61
udFe_6 7.4183e-03 1 1  ON 62
udFe_7 -5.8379e-03 1 1  ON 63
udFe_8 2.2192e-02 1 1  ON 64
udFe_9 -5.0672e-03 1 1  ON 65
udFe_10 7.5416e-04 1 1  ON 66
udFe_11 -1.3377e-02 1 1  ON 67
udFe_12 -1.0738e-02 1 1  ON 68
udFe_13 5.3694e-03 1 1  ON 69
udFe_14 8.6912e-03 1 1  ON 70
udFe_15 1.8799e-04 1 1  ON 71
udFe_16 8.0225e-03 1 1  ON 72
udFe_17 7.0647e-03 1 1  ON 73
udFe_18 8.1115e-03 1 1  ON 74
udFe_19 6.3892e-03 1 1  ON 75
udFe_20 -8.9533e-03 1 1  ON 76
udFe_21 -2.0629e-03 1 1  ON 77
udFe_22 -2.2218e-04 1 1  ON 78
udFe_23 5.8364e-03 1 1  ON 79
udFe_24 -2.0005e-03 1 1  ON 80
udFe_25 1.7739e-04 1 1  ON 81
  </optVariables>
   Restore the number of walkers to 1, removing 0 walkers.
</opt>
</optimization-report>
  QMC Execution time = 7.0129e+00 secs 
  Reusing QMCFixedSampleLinearOptimize
 Using QMCCostFunction::QMCCostFunction
 Using Default Cost Function: Cost = <|E-E_ff|^2>

=========================================================
  Start QMCFixedSampleLinearOptimize
  File Root Fe.dump.s002 append = no 
=========================================================
  Skip QMCDriver::putQMCInfo 
  Resetting Properties of the walkers 1 x 13

=========================================================
  Start VMC
  File Root Fe.dump.s002 append = no 
=========================================================
Using existing walkers 
  Resetting Properties of the walkers 1 x 13

<vmc function="put">
  qmc_counter=1  my_counter=1
  time step      = 5.0000e-01
  blocks         = 20
  steps          = 1
  substeps       = 5
  current        = 0
  target samples = 8.0000e+03
  walkers/mpi    = 1

  stepsbetweensamples = 2
<parameter name="blocks" condition="int">20</parameter>
<parameter name="blocks_between_recompute" condition="int">0</parameter>
<parameter name="check_properties" condition="int">100</parameter>
<parameter name="checkproperties" condition="int">100</parameter>
<parameter name="current" condition="int">0</parameter>
<parameter name="dmcwalkersperthread" condition="real">8.0000e+00</parameter>
<parameter name="maxcpusecs" condition="real">3.6000e+05</parameter>
<parameter name="record_configs" condition="int">0</parameter>
<parameter name="record_walkers" condition="int">2</parameter>
<parameter name="recordconfigs" condition="int">0</parameter>
<parameter name="recordwalkers" condition="int">2</parameter>
<parameter name="rewind" condition="int">0</parameter>
<parameter name="samples" condition="real">8.0000e+03</parameter>
<parameter name="samplesperthread" condition="real">8.0000e+00</parameter>
<parameter name="steps" condition="int">1</parameter>
<parameter name="stepsbetweensamples" condition="int">2</parameter>
<parameter name="store_configs" condition="int">0</parameter>
<parameter name="storeconfigs" condition="int">0</parameter>
<parameter name="sub_steps" condition="int">5</parameter>
<parameter name="substeps" condition="int">5</parameter>
<parameter name="tau" condition="au">5.0000e-01</parameter>
<parameter name="time_step" condition="au">5.0000e-01</parameter>
<parameter name="timestep" condition="au">5.0000e-01</parameter>
<parameter name="use_drift" condition="string">no</parameter>
<parameter name="usedrift" condition="string">no</parameter>
<parameter name="walkers" condition="int">1</parameter>
<parameter name="warmup_steps" condition="int">2</parameter>
<parameter name="warmupsteps" condition="int">2</parameter>
  DumpConfig==false Nothing (configurations, state) will be saved.
  Walker Samples are dumped every 2 steps.
</vmc>
  EstimatorManagerBase::add replace LocalEnergy estimator.
  EstimatorManagerBase::add replace LocalEnergy estimator.
<optimization-report>
<vmc stage="main" blocks="20">
  Cannot make clones again. Use existing 1 clones
  Initial partition of walkers 0 1 
  Using Particle by Particle moves
  Walker moves without drift
  Total Sample Size   =8704
  Walker distribution on root = 0 1 
  Using Locality Approximation
===== Memory Usage after the buffer registration =====
Available memory on node 0, free + buffers : 76548 MB
Memory footprint by rank 0 on node 0       : 154 MB
==================================================
====================================================
  SimpleFixedNodeBranch::finalize after a VMC block
    QMC counter        = 2
    time step          = 0.5
    reference energy   = -123.277
    reference variance = 1.33852
====================================================
  Execution time = 5.0303e+00
</vmc>
<opt stage="setup">
  <log>
   Reading configurations from h5FileRoot Fe.dump.s002
  QMCCostFunction is created with 1 threads.
  Using Nonlocal PP in Opt: no
   Number of samples loaded to each thread : 8 
  VMC Eavg = -1.2327e+02
  VMC Evar = 1.3630e+00
  Total weights = 8.7040e+03
  Execution time = 1.2349e+00
  </log>
</opt>
<opt stage="main" walkers="8704">
  <log>

*****************************************
Building overlap and Hamiltonian matrices
*****************************************

Among totally 82 optimized parameters, largest LM parameter change : 1.2672e-01 at parameter 20

******************************************************************************
Init Cost =  -1.1081e+02    New Cost =  -1.1082e+02  Delta Cost =  -8.1208e-03
******************************************************************************

The new set of parameters is valid. Updating the trial wave function!

*****************************************************************************
Applying the update for shift_i =   1.0000e-02     and shift_s =   6.2500e-02
*****************************************************************************
  Execution time = 6.2946e+00
  </log>
  <optVariables href="Fe.dump.s002.opt.xml">
uu_0 1.5475e-01 1 1  ON 0
uu_1 1.5661e-02 1 1  ON 1
uu_2 -1.1479e-02 1 1  ON 2
uu_3 -1.6822e-02 1 1  ON 3
uu_4 -1.6921e-02 1 1  ON 4
uu_5 -8.8847e-03 1 1  ON 5
uu_6 1.3065e-03 1 1  ON 6
uu_7 2.6483e-02 1 1  ON 7
uu_8 4.3300e-02 1 1  ON 8
uu_9 3.8403e-02 1 1  ON 9
ud_0 1.8153e-01 1 1  ON 10
ud_1 3.8336e-02 1 1  ON 11
ud_2 5.2303e-03 1 1  ON 12
ud_3 -1.1121e-02 1 1  ON 13
ud_4 -2.0810e-02 1 1  ON 14
ud_5 -2.3621e-02 1 1  ON 15
ud_6 -3.2243e-02 1 1  ON 16
ud_7 -2.9774e-02 1 1  ON 17
ud_8 -4.9179e-02 1 1  ON 18
ud_9 -3.3013e-02 1 1  ON 19
eFe_0 -4.4499e-01 1 1  ON 20
eFe_1 -2.4266e-01 1 1  ON 21
eFe_2 -2.3842e-02 1 1  ON 22
eFe_3 1.1131e-01 1 1  ON 23
eFe_4 1.7019e-01 1 1  ON 24
eFe_5 1.7906e-01 1 1  ON 25
eFe_6 1.6155e-01 1 1  ON 26
eFe_7 8.6858e-02 1 1  ON 27
eFe_8 3.1730e-02 1 1  ON 28
eFe_9 -3.5804e-02 1 1  ON 29
uuFe_0 -3.9187e-05 1 1  ON 30
uuFe_1 1.0673e-03 1 1  ON 31
uuFe_2 7.8666e-03 1 1  ON 32
uuFe_3 -1.9360e-03 1 1  ON 33
uuFe_4 -1.9545e-03 1 1  ON 34
uuFe_5 -4.6278e-04 1 1  ON 35
uuFe_6 5.8977e-03 1 1  ON 36
uuFe_7 -5.4370e-03 1 1  ON 37
uuFe_8 1.1620e-02 1 1  ON 38
uuFe_9 -4.3181e-03 1 1  ON 39
uuFe_10 -8.0604e-04 1 1  ON 40
uuFe_11 2.8768e-03 1 1  ON 41
uuFe_12 -5.7948e-03 1 1  ON 42
uuFe_13 8.1398e-03 1 1  ON 43
uuFe_14 4.3074e-03 1 1  ON 44
uuFe_15 1.3988e-04 1 1  ON 45
uuFe_16 -1.6518e-03 1 1  ON 46
uuFe_17 2.1357e-02 1 1  ON 47
uuFe_18 -2.6437e-02 1 1  ON 48
uuFe_19 8.8670e-03 1 1  ON 49
uuFe_20 -5.8034e-03 1 1  ON 50
uuFe_21 7.5694e-03 1 1  ON 51
uuFe_22 -2.5065e-03 1 1  ON 52
uuFe_23 3.8318e-03 1 1  ON 53
uuFe_24 -4.2853e-03 1 1  ON 54
uuFe_25 1.1844e-03 1 1  ON 55
udFe_0 1.5113e-03 1 1  ON 56
udFe_1 4.3812e-04 1 1  ON 57
udFe_2 1.0281e-02 1 1  ON 58
udFe_3 5.8769e-05 1 1  ON 59
udFe_4 -6.1218e-04 1 1  ON 60
udFe_5 -7.2623e-04 1 1  ON 61
udFe_6 6.3151e-03 1 1  ON 62
udFe_7 -7.0012e-03 1 1  ON 63
udFe_8 1.7354e-02 1 1  ON 64
udFe_9 -5.2848e-03 1 1  ON 65
udFe_10 3.7760e-03 1 1  ON 66
udFe_11 -1.6734e-02 1 1  ON 67
udFe_12 -5.7165e-03 1 1  ON 68
udFe_13 2.9722e-03 1 1  ON 69
udFe_14 4.6057e-03 1 1  ON 70
udFe_15 6.1736e-05 1 1  ON 71
udFe_16 1.0730e-02 1 1  ON 72
udFe_17 -5.4581e-03 1 1  ON 73
udFe_18 2.4668e-02 1 1  ON 74
udFe_19 -1.7989e-03 1 1  ON 75
udFe_20 -7.9216e-03 1 1  ON 76
udFe_21 -5.9238e-03 1 1  ON 77
udFe_22 2.0009e-03 1 1  ON 78
udFe_23 4.9555e-03 1 1  ON 79
udFe_24 4.5011e-04 1 1  ON 80
udFe_25 -8.8173e-04 1 1  ON 81
  </optVariables>
   Restore the number of walkers to 1, removing 0 walkers.
</opt>
</optimization-report>
  QMC Execution time = 6.8264e+00 secs 
  Reusing QMCFixedSampleLinearOptimize
 Using QMCCostFunction::QMCCostFunction
 Using Default Cost Function: Cost = <|E-E_ff|^2>

=========================================================
  Start QMCFixedSampleLinearOptimize
  File Root Fe.dump.s003 append = no 
=========================================================
  Skip QMCDriver::putQMCInfo 
  Resetting Properties of the walkers 1 x 13

=========================================================
  Start VMC
  File Root Fe.dump.s003 append = no 
=========================================================
Using existing walkers 
  Resetting Properties of the walkers 1 x 13

<vmc function="put">
  qmc_counter=2  my_counter=2
  time step      = 5.0000e-01
  blocks         = 20
  steps          = 1
  substeps       = 5
  current        = 0
  target samples = 8.0000e+03
  walkers/mpi    = 1

  stepsbetweensamples = 2
<parameter name="blocks" condition="int">20</parameter>
<parameter name="blocks_between_recompute" condition="int">0</parameter>
<parameter name="check_properties" condition="int">100</parameter>
<parameter name="checkproperties" condition="int">100</parameter>
<parameter name="current" condition="int">0</parameter>
<parameter name="dmcwalkersperthread" condition="real">8.0000e+00</parameter>
<parameter name="maxcpusecs" condition="real">3.6000e+05</parameter>
<parameter name="record_configs" condition="int">0</parameter>
<parameter name="record_walkers" condition="int">2</parameter>
<parameter name="recordconfigs" condition="int">0</parameter>
<parameter name="recordwalkers" condition="int">2</parameter>
<parameter name="rewind" condition="int">0</parameter>
<parameter name="samples" condition="real">8.0000e+03</parameter>
<parameter name="samplesperthread" condition="real">8.0000e+00</parameter>
<parameter name="steps" condition="int">1</parameter>
<parameter name="stepsbetweensamples" condition="int">2</parameter>
<parameter name="store_configs" condition="int">0</parameter>
<parameter name="storeconfigs" condition="int">0</parameter>
<parameter name="sub_steps" condition="int">5</parameter>
<parameter name="substeps" condition="int">5</parameter>
<parameter name="tau" condition="au">5.0000e-01</parameter>
<parameter name="time_step" condition="au">5.0000e-01</parameter>
<parameter name="timestep" condition="au">5.0000e-01</parameter>
<parameter name="use_drift" condition="string">no</parameter>
<parameter name="usedrift" condition="string">no</parameter>
<parameter name="walkers" condition="int">1</parameter>
<parameter name="warmup_steps" condition="int">2</parameter>
<parameter name="warmupsteps" condition="int">2</parameter>
  DumpConfig==false Nothing (configurations, state) will be saved.
  Walker Samples are dumped every 2 steps.
</vmc>
  EstimatorManagerBase::add replace LocalEnergy estimator.
  EstimatorManagerBase::add replace LocalEnergy estimator.
<optimization-report>
<vmc stage="main" blocks="20">
  Cannot make clones again. Use existing 1 clones
  Initial partition of walkers 0 1 
  Using Particle by Particle moves
  Walker moves without drift
  Total Sample Size   =8704
  Walker distribution on root = 0 1 
  Using Locality Approximation
===== Memory Usage after the buffer registration =====
Available memory on node 0, free + buffers : 76540 MB
Memory footprint by rank 0 on node 0       : 154 MB
==================================================
====================================================
  SimpleFixedNodeBranch::finalize after a VMC block
    QMC counter        = 3
    time step          = 0.5
    reference energy   = -123.313
    reference variance = 1.83618
====================================================
  Execution time = 5.0511e+00
</vmc>
<opt stage="setup">
  <log>
   Reading configurations from h5FileRoot Fe.dump.s003
  QMCCostFunction is created with 1 threads.
  Using Nonlocal PP in Opt: no
   Number of samples loaded to each thread : 8 
  VMC Eavg = -1.2328e+02
  VMC Evar = 1.3030e+00
  Total weights = 8.7040e+03
  Execution time = 1.2751e+00
  </log>
</opt>
<opt stage="main" walkers="8704">
  <log>

*****************************************
Building overlap and Hamiltonian matrices
*****************************************

Among totally 82 optimized parameters, largest LM parameter change : 1.9773e-01 at parameter 20

******************************************************************************
Init Cost =  -1.1082e+02    New Cost =  -1.1084e+02  Delta Cost =  -1.3733e-02
******************************************************************************

The new set of parameters is valid. Updating the trial wave function!

*****************************************************************************
Applying the update for shift_i =   1.0000e-02     and shift_s =   1.5625e-02
*****************************************************************************
  Execution time = 6.3551e+00
  </log>
  <optVariables href="Fe.dump.s003.opt.xml">
uu_0 1.2739e-01 1 1  ON 0
uu_1 -6.9083e-05 1 1  ON 1
uu_2 -3.1935e-02 1 1  ON 2
uu_3 -4.7109e-02 1 1  ON 3
uu_4 -4.4061e-02 1 1  ON 4
uu_5 -3.4872e-02 1 1  ON 5
uu_6 -2.0919e-02 1 1  ON 6
uu_7 5.5302e-03 1 1  ON 7
uu_8 6.2391e-02 1 1  ON 8
uu_9 8.0485e-02 1 1  ON 9
ud_0 2.3161e-01 1 1  ON 10
ud_1 7.6688e-02 1 1  ON 11
ud_2 3.8800e-02 1 1  ON 12
ud_3 2.3349e-02 1 1  ON 13
ud_4 1.1520e-02 1 1  ON 14
ud_5 -9.7949e-04 1 1  ON 15
ud_6 -3.0254e-03 1 1  ON 16
ud_7 -1.8042e-02 1 1  ON 17
ud_8 -3.2205e-02 1 1  ON 18
ud_9 -4.8860e-02 1 1  ON 19
eFe_0 -6.4272e-01 1 1  ON 20
eFe_1 -3.3813e-01 1 1  ON 21
eFe_2 -5.2993e-02 1 1  ON 22
eFe_3 1.2098e-01 1 1  ON 23
eFe_4 2.2438e-01 1 1  ON 24
eFe_5 2.4529e-01 1 1  ON 25
eFe_6 2.6569e-01 1 1  ON 26
eFe_7 9.8642e-02 1 1  ON 27
eFe_8 1.0361e-01 1 1  ON 28
eFe_9 -2.8576e-02 1 1  ON 29
uuFe_0 3.0167e-04 1 1  ON 30
uuFe_1 3.8252e-04 1 1  ON 31
uuFe_2 5.7002e-03 1 1  ON 32
uuFe_3 -2.3145e-03 1 1  ON 33
uuFe_4 -2.6910e-03 1 1  ON 34
uuFe_5 -3.3125e-04 1 1  ON 35
uuFe_6 8.8019e-04 1 1  ON 36
uuFe_7 2.4474e-03 1 1  ON 37
uuFe_8 1.5156e-02 1 1  ON 38
uuFe_9 -1.4366e-03 1 1  ON 39
uuFe_10 -1.5155e-03 1 1  ON 40
uuFe_11 -4.5393e-03 1 1  ON 41
uuFe_12 -8.4242e-03 1 1  ON 42
uuFe_13 7.4336e-03 1 1  ON 43
uuFe_14 8.6690e-03 1 1  ON 44
uuFe_15 -1.1138e-04 1 1  ON 45
uuFe_16 -6.5083e-03 1 1  ON 46
uuFe_17 2.2075e-02 1 1  ON 47
uuFe_18 -1.3237e-02 1 1  ON 48
uuFe_19 8.9577e-03 1 1  ON 49
uuFe_20 -3.9747e-03 1 1  ON 50
uuFe_21 1.1525e-03 1 1  ON 51
uuFe_22 -1.2768e-03 1 1  ON 52
uuFe_23 2.8958e-03 1 1  ON 53
uuFe_24 -1.5481e-03 1 1  ON 54
uuFe_25 3.6131e-04 1 1  ON 55
udFe_0 1.7482e-03 1 1  ON 56
udFe_1 5.5557e-05 1 1  ON 57
udFe_2 4.4889e-03 1 1  ON 58
udFe_3 -8.1350e-06 1 1  ON 59
udFe_4 -3.4309e-05 1 1  ON 60
udFe_5 -6.9155e-04 1 1  ON 61
udFe_6 4.0463e-03 1 1  ON 62
udFe_7 -9.0012e-03 1 1  ON 63
udFe_8 5.1169e-03 1 1  ON 64
udFe_9 -2.8415e-03 1 1  ON 65
udFe_10 1.8819e-03 1 1  ON 66
udFe_11 -2.3603e-03 1 1  ON 67
udFe_12 -3.2948e-03 1 1  ON 68
udFe_13 7.6027e-04 1 1  ON 69
udFe_14 1.2181e-03 1 1  ON 70
udFe_15 3.2884e-04 1 1  ON 71
udFe_16 7.4969e-03 1 1  ON 72
udFe_17 -4.0481e-03 1 1  ON 73
udFe_18 7.5586e-03 1 1  ON 74
udFe_19 1.9460e-03 1 1  ON 75
udFe_20 -5.8368e-03 1 1  ON 76
udFe_21 -1.9115e-03 1 1  ON 77
udFe_22 2.4282e-04 1 1  ON 78
udFe_23 4.3348e-03 1 1  ON 79
udFe_24 -6.1617e-04 1 1  ON 80
udFe_25 -1.9708e-04 1 1  ON 81
  </optVariables>
   Restore the number of walkers to 1, removing 0 walkers.
</opt>
</optimization-report>
  QMC Execution time = 6.8788e+00 secs 
  Reusing QMCFixedSampleLinearOptimize
 Using QMCCostFunction::QMCCostFunction
 Using Default Cost Function: Cost = <|E-E_ff|^2>

=========================================================
  Start QMCFixedSampleLinearOptimize
  File Root Fe.dump.s004 append = no 
=========================================================
  Skip QMCDriver::putQMCInfo 
  Resetting Properties of the walkers 1 x 13

=========================================================
  Start VMC
  File Root Fe.dump.s004 append = no 
=========================================================
Using existing walkers 
  Resetting Properties of the walkers 1 x 13

<vmc function="put">
  qmc_counter=3  my_counter=3
  time step      = 5.0000e-01
  blocks         = 20
  steps          = 1
  substeps       = 5
  current        = 0
  target samples = 8.0000e+03
  walkers/mpi    = 1

  stepsbetweensamples = 2
<parameter name="blocks" condition="int">20</parameter>
<parameter name="blocks_between_recompute" condition="int">0</parameter>
<parameter name="check_properties" condition="int">100</parameter>
<parameter name="checkproperties" condition="int">100</parameter>
<parameter name="current" condition="int">0</parameter>
<parameter name="dmcwalkersperthread" condition="real">8.0000e+00</parameter>
<parameter name="maxcpusecs" condition="real">3.6000e+05</parameter>
<parameter name="record_configs" condition="int">0</parameter>
<parameter name="record_walkers" condition="int">2</parameter>
<parameter name="recordconfigs" condition="int">0</parameter>
<parameter name="recordwalkers" condition="int">2</parameter>
<parameter name="rewind" condition="int">0</parameter>
<parameter name="samples" condition="real">8.0000e+03</parameter>
<parameter name="samplesperthread" condition="real">8.0000e+00</parameter>
<parameter name="steps" condition="int">1</parameter>
<parameter name="stepsbetweensamples" condition="int">2</parameter>
<parameter name="store_configs" condition="int">0</parameter>
<parameter name="storeconfigs" condition="int">0</parameter>
<parameter name="sub_steps" condition="int">5</parameter>
<parameter name="substeps" condition="int">5</parameter>
<parameter name="tau" condition="au">5.0000e-01</parameter>
<parameter name="time_step" condition="au">5.0000e-01</parameter>
<parameter name="timestep" condition="au">5.0000e-01</parameter>
<parameter name="use_drift" condition="string">no</parameter>
<parameter name="usedrift" condition="string">no</parameter>
<parameter name="walkers" condition="int">1</parameter>
<parameter name="warmup_steps" condition="int">2</parameter>
<parameter name="warmupsteps" condition="int">2</parameter>
  DumpConfig==false Nothing (configurations, state) will be saved.
  Walker Samples are dumped every 2 steps.
</vmc>
  EstimatorManagerBase::add replace LocalEnergy estimator.
  EstimatorManagerBase::add replace LocalEnergy estimator.
<optimization-report>
<vmc stage="main" blocks="20">
  Cannot make clones again. Use existing 1 clones
  Initial partition of walkers 0 1 
  Using Particle by Particle moves
  Walker moves without drift
  Total Sample Size   =8704
  Walker distribution on root = 0 1 
  Using Locality Approximation
===== Memory Usage after the buffer registration =====
Available memory on node 0, free + buffers : 76532 MB
Memory footprint by rank 0 on node 0       : 154 MB
==================================================
====================================================
  SimpleFixedNodeBranch::finalize after a VMC block
    QMC counter        = 4
    time step          = 0.5
    reference energy   = -123.259
    reference variance = 1.02429
====================================================
  Execution time = 5.1462e+00
</vmc>
<opt stage="setup">
  <log>
   Reading configurations from h5FileRoot Fe.dump.s004
  QMCCostFunction is created with 1 threads.
  Using Nonlocal PP in Opt: no
   Number of samples loaded to each thread : 8 
  VMC Eavg = -1.2330e+02
  VMC Evar = 1.5802e+00
  Total weights = 8.7040e+03
  Execution time = 1.2685e+00
  </log>
</opt>
<opt stage="main" walkers="8704">
  <log>

*****************************************
Building overlap and Hamiltonian matrices
*****************************************

Among totally 82 optimized parameters, largest LM parameter change : 1.0728e-01 at parameter 21

******************************************************************************
Init Cost =  -1.1082e+02    New Cost =  -1.1081e+02  Delta Cost =   5.7130e-03
******************************************************************************

The new set of parameters is valid. Updating the trial wave function!

*****************************************************************************
Applying the update for shift_i =   1.0000e-02     and shift_s =   3.9062e-03
*****************************************************************************
  Execution time = 6.4418e+00
  </log>
  <optVariables href="Fe.dump.s004.opt.xml">
uu_0 1.5740e-01 1 1  ON 0
uu_1 1.1894e-02 1 1  ON 1
uu_2 -2.2165e-02 1 1  ON 2
uu_3 -3.9454e-02 1 1  ON 3
uu_4 -4.2995e-02 1 1  ON 4
uu_5 -5.1026e-02 1 1  ON 5
uu_6 -5.2956e-02 1 1  ON 6
uu_7 -1.1828e-02 1 1  ON 7
uu_8 6.9859e-03 1 1  ON 8
uu_9 5.6841e-02 1 1  ON 9
ud_0 2.6601e-01 1 1  ON 10
ud_1 9.8966e-02 1 1  ON 11
ud_2 5.7415e-02 1 1  ON 12
ud_3 4.6599e-02 1 1  ON 13
ud_4 3.1083e-02 1 1  ON 14
ud_5 3.3051e-02 1 1  ON 15
ud_6 2.4639e-02 1 1  ON 16
ud_7 1.7461e-02 1 1  ON 17
ud_8 1.8487e-02 1 1  ON 18
ud_9 1.2683e-02 1 1  ON 19
eFe_0 -7.2281e-01 1 1  ON 20
eFe_1 -4.4540e-01 1 1  ON 21
eFe_2 -1.3047e-01 1 1  ON 22
eFe_3 1.2943e-01 1 1  ON 23
eFe_4 2.7463e-01 1 1  ON 24
eFe_5 3.2800e-01 1 1  ON 25
eFe_6 3.2750e-01 1 1  ON 26
eFe_7 1.6908e-01 1 1  ON 27
eFe_8 1.0688e-01 1 1  ON 28
eFe_9 -3.9436e-02 1 1  ON 29
uuFe_0 -4.2880e-05 1 1  ON 30
uuFe_1 2.5379e-04 1 1  ON 31
uuFe_2 8.0503e-03 1 1  ON 32
uuFe_3 -1.9310e-03 1 1  ON 33
uuFe_4 -2.0248e-03 1 1  ON 34
uuFe_5 -3.0514e-04 1 1  ON 35
uuFe_6 1.3750e-03 1 1  ON 36
uuFe_7 4.0876e-03 1 1  ON 37
uuFe_8 1.3778e-02 1 1  ON 38
uuFe_9 -1.9762e-03 1 1  ON 39
uuFe_10 5.6541e-05 1 1  ON 40
uuFe_11 -5.2168e-03 1 1  ON 41
uuFe_12 -5.0845e-03 1 1  ON 42
uuFe_13 6.2452e-03 1 1  ON 43
uuFe_14 5.4083e-03 1 1  ON 44
uuFe_15 -5.7464e-05 1 1  ON 45
uuFe_16 -8.6456e-03 1 1  ON 46
uuFe_17 1.9032e-02 1 1  ON 47
uuFe_18 -1.7933e-02 1 1  ON 48
uuFe_19 6.7410e-03 1 1  ON 49
uuFe_20 -3.6822e-04 1 1  ON 50
uuFe_21 5.4568e-03 1 1  ON 51
uuFe_22 -2.2153e-03 1 1  ON 52
uuFe_23 1.5026e-04 1 1  ON 53
uuFe_24 -3.1153e-03 1 1  ON 54
uuFe_25 1.2260e-03 1 1  ON 55
udFe_0 6.0307e-04 1 1  ON 56
udFe_1 1.0661e-03 1 1  ON 57
udFe_2 9.1162e-03 1 1  ON 58
udFe_3 -9.7192e-04 1 1  ON 59
udFe_4 -3.4498e-03 1 1  ON 60
udFe_5 -8.2640e-04 1 1  ON 61
udFe_6 8.5405e-03 1 1  ON 62
udFe_7 -6.5720e-03 1 1  ON 63
udFe_8 1.0423e-02 1 1  ON 64
udFe_9 -5.2688e-03 1 1  ON 65
udFe_10 -3.9530e-04 1 1  ON 66
udFe_11 -3.3125e-03 1 1  ON 67
udFe_12 -6.8079e-03 1 1  ON 68
udFe_13 1.4204e-03 1 1  ON 69
udFe_14 2.5806e-03 1 1  ON 70
udFe_15 7.1910e-04 1 1  ON 71
udFe_16 1.2264e-02 1 1  ON 72
udFe_17 -2.9779e-03 1 1  ON 73
udFe_18 8.4329e-04 1 1  ON 74
udFe_19 7.0439e-03 1 1  ON 75
udFe_20 -6.7713e-03 1 1  ON 76
udFe_21 1.0440e-03 1 1  ON 77
udFe_22 -1.6172e-03 1 1  ON 78
udFe_23 4.1247e-03 1 1  ON 79
udFe_24 -1.9668e-03 1 1  ON 80
udFe_25 6.1695e-04 1 1  ON 81
  </optVariables>
   Restore the number of walkers to 1, removing 0 walkers.
</opt>
</optimization-report>
  QMC Execution time = 6.7719e+00 secs 
Loop execution max-interations = 10
  Reusing QMCFixedSampleLinearOptimize
 Using QMCCostFunction::QMCCostFunction
 Using Default Cost Function: Cost = <|E-E_ff|^2>

=========================================================
  Start QMCFixedSampleLinearOptimize
  File Root Fe.dump.s005 append = no 
=========================================================
  Skip QMCDriver::putQMCInfo 
  Resetting Properties of the walkers 1 x 13

=========================================================
  Start VMC
  File Root Fe.dump.s005 append = no 
=========================================================
  Using the current 1 walkers.
  Total number of walkers: 1.0880e+03
  Total weight: 1.0880e+03
  Resetting Properties of the walkers 1 x 13

<vmc function="put">
  qmc_counter=0  my_counter=4
  time step      = 5.0000e-01
  blocks         = 40
  steps          = 1
  substeps       = 5
  current        = 0
  target samples = 1.6000e+04
  walkers/mpi    = 1

  stepsbetweensamples = 2
<parameter name="blocks" condition="int">40</parameter>
<parameter name="blocks_between_recompute" condition="int">0</parameter>
<parameter name="check_properties" condition="int">100</parameter>
<parameter name="checkproperties" condition="int">100</parameter>
<parameter name="current" condition="int">0</parameter>
<parameter name="dmcwalkersperthread" condition="real">1.5000e+01</parameter>
<parameter name="maxcpusecs" condition="real">3.6000e+05</parameter>
<parameter name="record_configs" condition="int">0</parameter>
<parameter name="record_walkers" condition="int">2</parameter>
<parameter name="recordconfigs" condition="int">0</parameter>
<parameter name="recordwalkers" condition="int">2</parameter>
<parameter name="rewind" condition="int">0</parameter>
<parameter name="samples" condition="real">1.6000e+04</parameter>
<parameter name="samplesperthread" condition="real">1.5000e+01</parameter>
<parameter name="steps" condition="int">1</parameter>
<parameter name="stepsbetweensamples" condition="int">2</parameter>
<parameter name="store_configs" condition="int">0</parameter>
<parameter name="storeconfigs" condition="int">0</parameter>
<parameter name="sub_steps" condition="int">5</parameter>
<parameter name="substeps" condition="int">5</parameter>
<parameter name="tau" condition="au">5.0000e-01</parameter>
<parameter name="time_step" condition="au">5.0000e-01</parameter>
<parameter name="timestep" condition="au">5.0000e-01</parameter>
<parameter name="use_drift" condition="string">no</parameter>
<parameter name="usedrift" condition="string">no</parameter>
<parameter name="walkers" condition="int">1</parameter>
<parameter name="warmup_steps" condition="int">5</parameter>
<parameter name="warmupsteps" condition="int">5</parameter>
  DumpConfig==false Nothing (configurations, state) will be saved.
  Walker Samples are dumped every 2 steps.
</vmc>
  EstimatorManagerBase::add replace LocalEnergy estimator.
  EstimatorManagerBase::add replace LocalEnergy estimator.
<optimization-report>
<vmc stage="main" blocks="40">
  Cannot make clones again. Use existing 1 clones
  Initial partition of walkers 0 1 
  Using Particle by Particle moves
  Walker moves without drift
  Total Sample Size   =16320
  Walker distribution on root = 0 1 
  Using Locality Approximation
===== Memory Usage after the buffer registration =====
Available memory on node 0, free + buffers : 76525 MB
Memory footprint by rank 0 on node 0       : 154 MB
==================================================
====================================================
  SimpleFixedNodeBranch::finalize after a VMC block
    QMC counter        = 5
    time step          = 0.5
    reference energy   = -123.324
    reference variance = 2.01272
====================================================
  Execution time = 1.0307e+01
</vmc>
<opt stage="setup">
  <log>
   Reading configurations from h5FileRoot Fe.dump.s005
  QMCCostFunction is created with 1 threads.
  Using Nonlocal PP in Opt: no
   Number of samples loaded to each thread : 15 
  VMC Eavg = -1.2329e+02
  VMC Evar = 1.4977e+00
  Total weights = 1.6320e+04
  Execution time = 2.3468e+00
  </log>
</opt>
<opt stage="main" walkers="16320">
  <log>

*****************************************
Building overlap and Hamiltonian matrices
*****************************************

Among totally 82 optimized parameters, largest LM parameter change : 1.4690e-01 at parameter 20

******************************************************************************
Init Cost =  -1.1082e+02    New Cost =  -1.1083e+02  Delta Cost =  -1.0182e-02
******************************************************************************

The new set of parameters is valid. Updating the trial wave function!

*****************************************************************************
Applying the update for shift_i =   1.0000e-02     and shift_s =   3.9062e-03
*****************************************************************************
  Execution time = 1.2685e+01
  </log>
  <optVariables href="Fe.dump.s005.opt.xml">
uu_0 1.3700e-01 1 1  ON 0
uu_1 -4.4392e-03 1 1  ON 1
uu_2 -3.7650e-02 1 1  ON 2
uu_3 -5.1600e-02 1 1  ON 3
uu_4 -5.7963e-02 1 1  ON 4
uu_5 -5.0067e-02 1 1  ON 5
uu_6 -3.8718e-02 1 1  ON 6
uu_7 -5.5759e-03 1 1  ON 7
uu_8 1.4778e-02 1 1  ON 8
uu_9 4.8935e-02 1 1  ON 9
ud_0 2.4414e-01 1 1  ON 10
ud_1 9.6934e-02 1 1  ON 11
ud_2 6.0379e-02 1 1  ON 12
ud_3 4.4443e-02 1 1  ON 13
ud_4 2.8828e-02 1 1  ON 14
ud_5 2.3687e-02 1 1  ON 15
ud_6 6.3118e-03 1 1  ON 16
ud_7 -2.0019e-03 1 1  ON 17
ud_8 -1.8723e-02 1 1  ON 18
ud_9 -3.1666e-02 1 1  ON 19
eFe_0 -8.6971e-01 1 1  ON 20
eFe_1 -5.3569e-01 1 1  ON 21
eFe_2 -8.9075e-02 1 1  ON 22
eFe_3 1.3026e-01 1 1  ON 23
eFe_4 2.9017e-01 1 1  ON 24
eFe_5 3.8752e-01 1 1  ON 25
eFe_6 4.0212e-01 1 1  ON 26
eFe_7 2.3172e-01 1 1  ON 27
eFe_8 1.0340e-01 1 1  ON 28
eFe_9 -7.0595e-02 1 1  ON 29
uuFe_0 -1.6057e-03 1 1  ON 30
uuFe_1 4.1733e-04 1 1  ON 31
uuFe_2 1.1265e-02 1 1  ON 32
uuFe_3 -1.0078e-03 1 1  ON 33
uuFe_4 -3.5305e-03 1 1  ON 34
uuFe_5 -2.9020e-04 1 1  ON 35
uuFe_6 4.3564e-03 1 1  ON 36
uuFe_7 2.0972e-03 1 1  ON 37
uuFe_8 1.8515e-02 1 1  ON 38
uuFe_9 -2.1844e-03 1 1  ON 39
uuFe_10 3.2403e-04 1 1  ON 40
uuFe_11 -8.5495e-03 1 1  ON 41
uuFe_12 -9.4838e-03 1 1  ON 42
uuFe_13 4.3662e-03 1 1  ON 43
uuFe_14 7.7134e-03 1 1  ON 44
uuFe_15 3.1230e-04 1 1  ON 45
uuFe_16 -4.7542e-03 1 1  ON 46
uuFe_17 1.3967e-02 1 1  ON 47
uuFe_18 -8.4494e-03 1 1  ON 48
uuFe_19 9.9676e-03 1 1  ON 49
uuFe_20 -1.5959e-03 1 1  ON 50
uuFe_21 1.3723e-03 1 1  ON 51
uuFe_22 -2.0349e-03 1 1  ON 52
uuFe_23 1.1472e-03 1 1  ON 53
uuFe_24 -1.6435e-03 1 1  ON 54
uuFe_25 7.4141e-04 1 1  ON 55
udFe_0 2.0475e-03 1 1  ON 56
udFe_1 2.2170e-04 1 1  ON 57
udFe_2 5.4754e-03 1 1  ON 58
udFe_3 -2.3473e-04 1 1  ON 59
udFe_4 1.1016e-04 1 1  ON 60
udFe_5 -4.7599e-04 1 1  ON 61
udFe_6 3.6938e-03 1 1  ON 62
udFe_7 -6.5346e-03 1 1  ON 63
udFe_8 7.2899e-03 1 1  ON 64
udFe_9 -3.7039e-03 1 1  ON 65
udFe_10 2.2472e-03 1 1  ON 66
udFe_11 -5.1199e-03 1 1  ON 67
udFe_12 -2.6413e-03 1 1  ON 68
udFe_13 2.3282e-03 1 1  ON 69
udFe_14 1.5720e-03 1 1  ON 70
udFe_15 1.1685e-04 1 1  ON 71
udFe_16 7.2110e-03 1 1  ON 72
udFe_17 -1.1767e-03 1 1  ON 73
udFe_18 4.8857e-03 1 1  ON 74
udFe_19 8.3870e-04 1 1  ON 75
udFe_20 -5.6714e-03 1 1  ON 76
udFe_21 1.2622e-04 1 1  ON 77
udFe_22 1.5967e-04 1 1  ON 78
udFe_23 3.4966e-03 1 1  ON 79
udFe_24 -1.6436e-03 1 1  ON 80
udFe_25 4.4081e-05 1 1  ON 81
  </optVariables>
   Restore the number of walkers to 1, removing 0 walkers.
</opt>
</optimization-report>
  QMC Execution time = 1.3206e+01 secs 
  Reusing QMCFixedSampleLinearOptimize
 Using QMCCostFunction::QMCCostFunction
 Using Default Cost Function: Cost = <|E-E_ff|^2>

=========================================================
  Start QMCFixedSampleLinearOptimize
  File Root Fe.dump.s006 append = no 
=========================================================
  Skip QMCDriver::putQMCInfo 
  Resetting Properties of the walkers 1 x 13

=========================================================
  Start VMC
  File Root Fe.dump.s006 append = no 
=========================================================
Using existing walkers 
  Resetting Properties of the walkers 1 x 13

<vmc function="put">
  qmc_counter=1  my_counter=5
  time step      = 5.0000e-01
  blocks         = 40
  steps          = 1
  substeps       = 5
  current        = 0
  target samples = 1.6000e+04
  walkers/mpi    = 1

  stepsbetweensamples = 2
<parameter name="blocks" condition="int">40</parameter>
<parameter name="blocks_between_recompute" condition="int">0</parameter>
<parameter name="check_properties" condition="int">100</parameter>
<parameter name="checkproperties" condition="int">100</parameter>
<parameter name="current" condition="int">0</parameter>
<parameter name="dmcwalkersperthread" condition="real">1.5000e+01</parameter>
<parameter name="maxcpusecs" condition="real">3.6000e+05</parameter>
<parameter name="record_configs" condition="int">0</parameter>
<parameter name="record_walkers" condition="int">2</parameter>
<parameter name="recordconfigs" condition="int">0</parameter>
<parameter name="recordwalkers" condition="int">2</parameter>
<parameter name="rewind" condition="int">0</parameter>
<parameter name="samples" condition="real">1.6000e+04</parameter>
<parameter name="samplesperthread" condition="real">1.5000e+01</parameter>
<parameter name="steps" condition="int">1</parameter>
<parameter name="stepsbetweensamples" condition="int">2</parameter>
<parameter name="store_configs" condition="int">0</parameter>
<parameter name="storeconfigs" condition="int">0</parameter>
<parameter name="sub_steps" condition="int">5</parameter>
<parameter name="substeps" condition="int">5</parameter>
<parameter name="tau" condition="au">5.0000e-01</parameter>
<parameter name="time_step" condition="au">5.0000e-01</parameter>
<parameter name="timestep" condition="au">5.0000e-01</parameter>
<parameter name="use_drift" condition="string">no</parameter>
<parameter name="usedrift" condition="string">no</parameter>
<parameter name="walkers" condition="int">1</parameter>
<parameter name="warmup_steps" condition="int">5</parameter>
<parameter name="warmupsteps" condition="int">5</parameter>
  DumpConfig==false Nothing (configurations, state) will be saved.
  Walker Samples are dumped every 2 steps.
</vmc>
  EstimatorManagerBase::add replace LocalEnergy estimator.
  EstimatorManagerBase::add replace LocalEnergy estimator.
<optimization-report>
<vmc stage="main" blocks="40">
  Cannot make clones again. Use existing 1 clones
  Initial partition of walkers 0 1 
  Using Particle by Particle moves
  Walker moves without drift
  Total Sample Size   =16320
  Walker distribution on root = 0 1 
  Using Locality Approximation
===== Memory Usage after the buffer registration =====
Available memory on node 0, free + buffers : 76516 MB
Memory footprint by rank 0 on node 0       : 154 MB
==================================================
====================================================
  SimpleFixedNodeBranch::finalize after a VMC block
    QMC counter        = 6
    time step          = 0.5
    reference energy   = -123.252
    reference variance = 1.63207
====================================================
  Execution time = 1.0168e+01
</vmc>
<opt stage="setup">
  <log>
   Reading configurations from h5FileRoot Fe.dump.s006
  QMCCostFunction is created with 1 threads.
  Using Nonlocal PP in Opt: no
   Number of samples loaded to each thread : 15 
  VMC Eavg = -1.2328e+02
  VMC Evar = 1.5823e+00
  Total weights = 1.6320e+04
  Execution time = 2.3534e+00
  </log>
</opt>
<opt stage="main" walkers="16320">
  <log>

*****************************************
Building overlap and Hamiltonian matrices
*****************************************

Among totally 82 optimized parameters, largest LM parameter change : 8.0784e-02 at parameter 27

******************************************************************************
Init Cost =  -1.1080e+02    New Cost =  -1.1080e+02  Delta Cost =  -4.4142e-03
******************************************************************************

The new set of parameters is valid. Updating the trial wave function!

*****************************************************************************
Applying the update for shift_i =   1.0000e-02     and shift_s =   3.9062e-03
*****************************************************************************
  Execution time = 1.2551e+01
  </log>
  <optVariables href="Fe.dump.s006.opt.xml">
uu_0 1.5230e-01 1 1  ON 0
uu_1 1.3029e-02 1 1  ON 1
uu_2 -1.7586e-02 1 1  ON 2
uu_3 -3.2527e-02 1 1  ON 3
uu_4 -4.0700e-02 1 1  ON 4
uu_5 -4.1374e-02 1 1  ON 5
uu_6 -3.6774e-02 1 1  ON 6
uu_7 -6.8754e-03 1 1  ON 7
uu_8 -2.0642e-03 1 1  ON 8
uu_9 -1.9139e-03 1 1  ON 9
ud_0 2.1425e-01 1 1  ON 10
ud_1 6.2456e-02 1 1  ON 11
ud_2 2.4702e-02 1 1  ON 12
ud_3 8.7594e-03 1 1  ON 13
ud_4 -6.9527e-03 1 1  ON 14
ud_5 -1.3754e-02 1 1  ON 15
ud_6 -1.3413e-02 1 1  ON 16
ud_7 -1.1069e-02 1 1  ON 17
ud_8 -8.6147e-03 1 1  ON 18
ud_9 3.1929e-03 1 1  ON 19
eFe_0 -9.3523e-01 1 1  ON 20
eFe_1 -5.8187e-01 1 1  ON 21
eFe_2 -1.3827e-01 1 1  ON 22
eFe_3 1.1703e-01 1 1  ON 23
eFe_4 2.9460e-01 1 1  ON 24
eFe_5 4.0801e-01 1 1  ON 25
eFe_6 4.1549e-01 1 1  ON 26
eFe_7 3.1251e-01 1 1  ON 27
eFe_8 1.3809e-01 1 1  ON 28
eFe_9 -5.8789e-02 1 1  ON 29
uuFe_0 -1.0845e-03 1 1  ON 30
uuFe_1 2.1237e-04 1 1  ON 31
uuFe_2 1.0169e-02 1 1  ON 32
uuFe_3 -1.1983e-03 1 1  ON 33
uuFe_4 -3.1214e-03 1 1  ON 34
uuFe_5 -2.2046e-04 1 1  ON 35
uuFe_6 2.4494e-03 1 1  ON 36
uuFe_7 1.8652e-03 1 1  ON 37
uuFe_8 1.9645e-02 1 1  ON 38
uuFe_9 -1.0696e-03 1 1  ON 39
uuFe_10 5.6537e-04 1 1  ON 40
uuFe_11 -9.1349e-03 1 1  ON 41
uuFe_12 -1.0765e-02 1 1  ON 42
uuFe_13 4.9732e-03 1 1  ON 43
uuFe_14 9.4838e-03 1 1  ON 44
uuFe_15 2.6018e-04 1 1  ON 45
uuFe_16 -9.6279e-03 1 1  ON 46
uuFe_17 1.7338e-02 1 1  ON 47
uuFe_18 -7.9312e-03 1 1  ON 48
uuFe_19 1.1277e-02 1 1  ON 49
uuFe_20 5.6385e-04 1 1  ON 50
uuFe_21 -6.4642e-04 1 1  ON 51
uuFe_22 -1.7446e-03 1 1  ON 52
uuFe_23 -4.0478e-04 1 1  ON 53
uuFe_24 -4.9723e-04 1 1  ON 54
uuFe_25 4.1689e-04 1 1  ON 55
udFe_0 2.0692e-03 1 1  ON 56
udFe_1 5.7095e-04 1 1  ON 57
udFe_2 6.4368e-03 1 1  ON 58
udFe_3 -6.5869e-04 1 1  ON 59
udFe_4 -2.6574e-04 1 1  ON 60
udFe_5 -5.3214e-04 1 1  ON 61
udFe_6 5.2494e-03 1 1  ON 62
udFe_7 -9.1643e-03 1 1  ON 63
udFe_8 7.6964e-03 1 1  ON 64
udFe_9 -4.5104e-03 1 1  ON 65
udFe_10 1.9416e-03 1 1  ON 66
udFe_11 -5.3375e-03 1 1  ON 67
udFe_12 -2.7222e-03 1 1  ON 68
udFe_13 2.7156e-03 1 1  ON 69
udFe_14 5.3899e-04 1 1  ON 70
udFe_15 3.3437e-04 1 1  ON 71
udFe_16 1.1135e-02 1 1  ON 72
udFe_17 -5.1582e-03 1 1  ON 73
udFe_18 1.0341e-02 1 1  ON 74
udFe_19 4.0514e-04 1 1  ON 75
udFe_20 -7.9227e-03 1 1  ON 76
udFe_21 -1.0525e-03 1 1  ON 77
udFe_22 1.6238e-04 1 1  ON 78
udFe_23 4.9654e-03 1 1  ON 79
udFe_24 -1.2905e-03 1 1  ON 80
udFe_25 8.1450e-05 1 1  ON 81
  </optVariables>
   Restore the number of walkers to 1, removing 0 walkers.
</opt>
</optimization-report>
  QMC Execution time = 1.3072e+01 secs 
  Reusing QMCFixedSampleLinearOptimize
 Using QMCCostFunction::QMCCostFunction
 Using Default Cost Function: Cost = <|E-E_ff|^2>

=========================================================
  Start QMCFixedSampleLinearOptimize
  File Root Fe.dump.s007 append = no 
=========================================================
  Skip QMCDriver::putQMCInfo 
  Resetting Properties of the walkers 1 x 13

=========================================================
  Start VMC
  File Root Fe.dump.s007 append = no 
=========================================================
Using existing walkers 
  Resetting Properties of the walkers 1 x 13

<vmc function="put">
  qmc_counter=2  my_counter=6
  time step      = 5.0000e-01
  blocks         = 40
  steps          = 1
  substeps       = 5
  current        = 0
  target samples = 1.6000e+04
  walkers/mpi    = 1

  stepsbetweensamples = 2
<parameter name="blocks" condition="int">40</parameter>
<parameter name="blocks_between_recompute" condition="int">0</parameter>
<parameter name="check_properties" condition="int">100</parameter>
<parameter name="checkproperties" condition="int">100</parameter>
<parameter name="current" condition="int">0</parameter>
<parameter name="dmcwalkersperthread" condition="real">1.5000e+01</parameter>
<parameter name="maxcpusecs" condition="real">3.6000e+05</parameter>
<parameter name="record_configs" condition="int">0</parameter>
<parameter name="record_walkers" condition="int">2</parameter>
<parameter name="recordconfigs" condition="int">0</parameter>
<parameter name="recordwalkers" condition="int">2</parameter>
<parameter name="rewind" condition="int">0</parameter>
<parameter name="samples" condition="real">1.6000e+04</parameter>
<parameter name="samplesperthread" condition="real">1.5000e+01</parameter>
<parameter name="steps" condition="int">1</parameter>
<parameter name="stepsbetweensamples" condition="int">2</parameter>
<parameter name="store_configs" condition="int">0</parameter>
<parameter name="storeconfigs" condition="int">0</parameter>
<parameter name="sub_steps" condition="int">5</parameter>
<parameter name="substeps" condition="int">5</parameter>
<parameter name="tau" condition="au">5.0000e-01</parameter>
<parameter name="time_step" condition="au">5.0000e-01</parameter>
<parameter name="timestep" condition="au">5.0000e-01</parameter>
<parameter name="use_drift" condition="string">no</parameter>
<parameter name="usedrift" condition="string">no</parameter>
<parameter name="walkers" condition="int">1</parameter>
<parameter name="warmup_steps" condition="int">5</parameter>
<parameter name="warmupsteps" condition="int">5</parameter>
  DumpConfig==false Nothing (configurations, state) will be saved.
  Walker Samples are dumped every 2 steps.
</vmc>
  EstimatorManagerBase::add replace LocalEnergy estimator.
  EstimatorManagerBase::add replace LocalEnergy estimator.
<optimization-report>
<vmc stage="main" blocks="40">
  Cannot make clones again. Use existing 1 clones
  Initial partition of walkers 0 1 
  Using Particle by Particle moves
  Walker moves without drift
  Total Sample Size   =16320
  Walker distribution on root = 0 1 
  Using Locality Approximation
===== Memory Usage after the buffer registration =====
Available memory on node 0, free + buffers : 76509 MB
Memory footprint by rank 0 on node 0       : 154 MB
==================================================
====================================================
  SimpleFixedNodeBranch::finalize after a VMC block
    QMC counter        = 7
    time step          = 0.5
    reference energy   = -123.317
    reference variance = 1.67585
====================================================
  Execution time = 1.0115e+01
</vmc>
<opt stage="setup">
  <log>
   Reading configurations from h5FileRoot Fe.dump.s007
  QMCCostFunction is created with 1 threads.
  Using Nonlocal PP in Opt: no
   Number of samples loaded to each thread : 15 
  VMC Eavg = -1.2328e+02
  VMC Evar = 1.3289e+00
  Total weights = 1.6320e+04
  Execution time = 2.3286e+00
  </log>
</opt>
<opt stage="main" walkers="16320">
  <log>

*****************************************
Building overlap and Hamiltonian matrices
*****************************************

Among totally 82 optimized parameters, largest LM parameter change : 9.8093e-02 at parameter 12

******************************************************************************
Init Cost =  -1.1082e+02    New Cost =  -1.1083e+02  Delta Cost =  -9.4251e-03
******************************************************************************

The new set of parameters is valid. Updating the trial wave function!

*****************************************************************************
Applying the update for shift_i =   1.0000e-02     and shift_s =   3.9062e-03
*****************************************************************************
  Execution time = 1.2474e+01
  </log>
  <optVariables href="Fe.dump.s007.opt.xml">
uu_0 1.1336e-01 1 1  ON 0
uu_1 -3.2729e-02 1 1  ON 1
uu_2 -7.0159e-02 1 1  ON 2
uu_3 -8.1962e-02 1 1  ON 3
uu_4 -9.4787e-02 1 1  ON 4
uu_5 -8.0374e-02 1 1  ON 5
uu_6 -6.6878e-02 1 1  ON 6
uu_7 -2.0796e-02 1 1  ON 7
uu_8 1.1221e-02 1 1  ON 8
uu_9 6.7185e-02 1 1  ON 9
ud_0 3.0062e-01 1 1  ON 10
ud_1 1.5938e-01 1 1  ON 11
ud_2 1.2280e-01 1 1  ON 12
ud_3 1.0262e-01 1 1  ON 13
ud_4 8.1889e-02 1 1  ON 14
ud_5 6.6670e-02 1 1  ON 15
ud_6 3.4564e-02 1 1  ON 16
ud_7 9.4177e-03 1 1  ON 17
ud_8 -1.5279e-02 1 1  ON 18
ud_9 -4.1425e-02 1 1  ON 19
eFe_0 -9.9276e-01 1 1  ON 20
eFe_1 -6.6594e-01 1 1  ON 21
eFe_2 -1.3123e-01 1 1  ON 22
eFe_3 1.3618e-01 1 1  ON 23
eFe_4 3.1921e-01 1 1  ON 24
eFe_5 4.3005e-01 1 1  ON 25
eFe_6 4.4271e-01 1 1  ON 26
eFe_7 3.4899e-01 1 1  ON 27
eFe_8 1.3598e-01 1 1  ON 28
eFe_9 -2.1588e-02 1 1  ON 29
uuFe_0 1.3442e-04 1 1  ON 30
uuFe_1 4.1782e-05 1 1  ON 31
uuFe_2 5.8924e-03 1 1  ON 32
uuFe_3 -2.7319e-03 1 1  ON 33
uuFe_4 -3.8667e-03 1 1  ON 34
uuFe_5 -2.2601e-04 1 1  ON 35
uuFe_6 -1.0199e-03 1 1  ON 36
uuFe_7 7.4182e-03 1 1  ON 37
uuFe_8 2.0095e-02 1 1  ON 38
uuFe_9 2.8395e-04 1 1  ON 39
uuFe_10 -2.2324e-03 1 1  ON 40
uuFe_11 -9.4133e-03 1 1  ON 41
uuFe_12 -1.2027e-02 1 1  ON 42
uuFe_13 7.6682e-03 1 1  ON 43
uuFe_14 1.3792e-02 1 1  ON 44
uuFe_15 -4.8144e-04 1 1  ON 45
uuFe_16 -1.1681e-02 1 1  ON 46
uuFe_17 2.6811e-02 1 1  ON 47
uuFe_18 -6.4933e-03 1 1  ON 48
uuFe_19 9.8816e-03 1 1  ON 49
uuFe_20 -2.3652e-03 1 1  ON 50
uuFe_21 -4.4424e-03 1 1  ON 51
uuFe_22 1.7728e-04 1 1  ON 52
uuFe_23 2.3837e-03 1 1  ON 53
uuFe_24 1.0068e-03 1 1  ON 54
uuFe_25 -6.5752e-04 1 1  ON 55
udFe_0 1.2122e-03 1 1  ON 56
udFe_1 5.9530e-04 1 1  ON 57
udFe_2 9.1538e-03 1 1  ON 58
udFe_3 1.1073e-03 1 1  ON 59
udFe_4 1.0418e-03 1 1  ON 60
udFe_5 -4.7003e-04 1 1  ON 61
udFe_6 8.3852e-03 1 1  ON 62
udFe_7 -1.2594e-02 1 1  ON 63
udFe_8 5.4079e-03 1 1  ON 64
udFe_9 -6.3311e-03 1 1  ON 65
udFe_10 4.5883e-03 1 1  ON 66
udFe_11 -6.1088e-03 1 1  ON 67
udFe_12 8.0865e-04 1 1  ON 68
udFe_13 2.5554e-04 1 1  ON 69
udFe_14 -4.1736e-03 1 1  ON 70
udFe_15 5.5365e-04 1 1  ON 71
udFe_16 1.7441e-02 1 1  ON 72
udFe_17 -1.5500e-02 1 1  ON 73
udFe_18 1.3048e-02 1 1  ON 74
udFe_19 -3.6661e-03 1 1  ON 75
udFe_20 -8.6127e-03 1 1  ON 76
udFe_21 2.2794e-03 1 1  ON 77
udFe_22 2.5729e-04 1 1  ON 78
udFe_23 5.6660e-03 1 1  ON 79
udFe_24 -3.3847e-03 1 1  ON 80
udFe_25 3.6412e-04 1 1  ON 81
  </optVariables>
   Restore the number of walkers to 1, removing 0 walkers.
</opt>
</optimization-report>
  QMC Execution time = 1.2991e+01 secs 
  Reusing QMCFixedSampleLinearOptimize
 Using QMCCostFunction::QMCCostFunction
 Using Default Cost Function: Cost = <|E-E_ff|^2>

=========================================================
  Start QMCFixedSampleLinearOptimize
  File Root Fe.dump.s008 append = no 
=========================================================
  Skip QMCDriver::putQMCInfo 
  Resetting Properties of the walkers 1 x 13

=========================================================
  Start VMC
  File Root Fe.dump.s008 append = no 
=========================================================
Using existing walkers 
  Resetting Properties of the walkers 1 x 13

<vmc function="put">
  qmc_counter=3  my_counter=7
  time step      = 5.0000e-01
  blocks         = 40
  steps          = 1
  substeps       = 5
  current        = 0
  target samples = 1.6000e+04
  walkers/mpi    = 1

  stepsbetweensamples = 2
<parameter name="blocks" condition="int">40</parameter>
<parameter name="blocks_between_recompute" condition="int">0</parameter>
<parameter name="check_properties" condition="int">100</parameter>
<parameter name="checkproperties" condition="int">100</parameter>
<parameter name="current" condition="int">0</parameter>
<parameter name="dmcwalkersperthread" condition="real">1.5000e+01</parameter>
<parameter name="maxcpusecs" condition="real">3.6000e+05</parameter>
<parameter name="record_configs" condition="int">0</parameter>
<parameter name="record_walkers" condition="int">2</parameter>
<parameter name="recordconfigs" condition="int">0</parameter>
<parameter name="recordwalkers" condition="int">2</parameter>
<parameter name="rewind" condition="int">0</parameter>
<parameter name="samples" condition="real">1.6000e+04</parameter>
<parameter name="samplesperthread" condition="real">1.5000e+01</parameter>
<parameter name="steps" condition="int">1</parameter>
<parameter name="stepsbetweensamples" condition="int">2</parameter>
<parameter name="store_configs" condition="int">0</parameter>
<parameter name="storeconfigs" condition="int">0</parameter>
<parameter name="sub_steps" condition="int">5</parameter>
<parameter name="substeps" condition="int">5</parameter>
<parameter name="tau" condition="au">5.0000e-01</parameter>
<parameter name="time_step" condition="au">5.0000e-01</parameter>
<parameter name="timestep" condition="au">5.0000e-01</parameter>
<parameter name="use_drift" condition="string">no</parameter>
<parameter name="usedrift" condition="string">no</parameter>
<parameter name="walkers" condition="int">1</parameter>
<parameter name="warmup_steps" condition="int">5</parameter>
<parameter name="warmupsteps" condition="int">5</parameter>
  DumpConfig==false Nothing (configurations, state) will be saved.
  Walker Samples are dumped every 2 steps.
</vmc>
  EstimatorManagerBase::add replace LocalEnergy estimator.
  EstimatorManagerBase::add replace LocalEnergy estimator.
<optimization-report>
<vmc stage="main" blocks="40">
  Cannot make clones again. Use existing 1 clones
  Initial partition of walkers 0 1 
  Using Particle by Particle moves
  Walker moves without drift
  Total Sample Size   =16320
  Walker distribution on root = 0 1 
  Using Locality Approximation
===== Memory Usage after the buffer registration =====
Available memory on node 0, free + buffers : 76501 MB
Memory footprint by rank 0 on node 0       : 154 MB
==================================================
====================================================
  SimpleFixedNodeBranch::finalize after a VMC block
    QMC counter        = 8
    time step          = 0.5
    reference energy   = -123.303
    reference variance = 1.1967
====================================================
  Execution time = 9.9438e+00
</vmc>
<opt stage="setup">
  <log>
   Reading configurations from h5FileRoot Fe.dump.s008
  QMCCostFunction is created with 1 threads.
  Using Nonlocal PP in Opt: no
   Number of samples loaded to each thread : 15 
  VMC Eavg = -1.2331e+02
  VMC Evar = 1.4155e+00
  Total weights = 1.6320e+04
  Execution time = 2.3377e+00
  </log>
</opt>
<opt stage="main" walkers="16320">
  <log>

*****************************************
Building overlap and Hamiltonian matrices
*****************************************

Among totally 82 optimized parameters, largest LM parameter change : 2.5449e-01 at parameter 2

******************************************************************************
Init Cost =  -1.1084e+02    New Cost =  -1.1050e+02  Delta Cost =   3.4026e-01
******************************************************************************

The new set of parameters is not valid. Revert to the old set!

*****************************************************************************
Applying the update for shift_i =   1.0000e-02     and shift_s =   1.5625e-02
*****************************************************************************
  Execution time = 1.2315e+01
  </log>
  <optVariables href="Fe.dump.s008.opt.xml">
uu_0 1.1336e-01 1 1  ON 0
uu_1 -3.2729e-02 1 1  ON 1
uu_2 -7.0159e-02 1 1  ON 2
uu_3 -8.1962e-02 1 1  ON 3
uu_4 -9.4787e-02 1 1  ON 4
uu_5 -8.0374e-02 1 1  ON 5
uu_6 -6.6878e-02 1 1  ON 6
uu_7 -2.0796e-02 1 1  ON 7
uu_8 1.1221e-02 1 1  ON 8
uu_9 6.7185e-02 1 1  ON 9
ud_0 3.0062e-01 1 1  ON 10
ud_1 1.5938e-01 1 1  ON 11
ud_2 1.2280e-01 1 1  ON 12
ud_3 1.0262e-01 1 1  ON 13
ud_4 8.1889e-02 1 1  ON 14
ud_5 6.6670e-02 1 1  ON 15
ud_6 3.4564e-02 1 1  ON 16
ud_7 9.4177e-03 1 1  ON 17
ud_8 -1.5279e-02 1 1  ON 18
ud_9 -4.1425e-02 1 1  ON 19
eFe_0 -9.9276e-01 1 1  ON 20
eFe_1 -6.6594e-01 1 1  ON 21
eFe_2 -1.3123e-01 1 1  ON 22
eFe_3 1.3618e-01 1 1  ON 23
eFe_4 3.1921e-01 1 1  ON 24
eFe_5 4.3005e-01 1 1  ON 25
eFe_6 4.4271e-01 1 1  ON 26
eFe_7 3.4899e-01 1 1  ON 27
eFe_8 1.3598e-01 1 1  ON 28
eFe_9 -2.1588e-02 1 1  ON 29
uuFe_0 1.3442e-04 1 1  ON 30
uuFe_1 4.1782e-05 1 1  ON 31
uuFe_2 5.8924e-03 1 1  ON 32
uuFe_3 -2.7319e-03 1 1  ON 33
uuFe_4 -3.8667e-03 1 1  ON 34
uuFe_5 -2.2601e-04 1 1  ON 35
uuFe_6 -1.0199e-03 1 1  ON 36
uuFe_7 7.4182e-03 1 1  ON 37
uuFe_8 2.0095e-02 1 1  ON 38
uuFe_9 2.8395e-04 1 1  ON 39
uuFe_10 -2.2324e-03 1 1  ON 40
uuFe_11 -9.4133e-03 1 1  ON 41
uuFe_12 -1.2027e-02 1 1  ON 42
uuFe_13 7.6682e-03 1 1  ON 43
uuFe_14 1.3792e-02 1 1  ON 44
uuFe_15 -4.8144e-04 1 1  ON 45
uuFe_16 -1.1681e-02 1 1  ON 46
uuFe_17 2.6811e-02 1 1  ON 47
uuFe_18 -6.4933e-03 1 1  ON 48
uuFe_19 9.8816e-03 1 1  ON 49
uuFe_20 -2.3652e-03 1 1  ON 50
uuFe_21 -4.4424e-03 1 1  ON 51
uuFe_22 1.7728e-04 1 1  ON 52
uuFe_23 2.3837e-03 1 1  ON 53
uuFe_24 1.0068e-03 1 1  ON 54
uuFe_25 -6.5752e-04 1 1  ON 55
udFe_0 1.2122e-03 1 1  ON 56
udFe_1 5.9530e-04 1 1  ON 57
udFe_2 9.1538e-03 1 1  ON 58
udFe_3 1.1073e-03 1 1  ON 59
udFe_4 1.0418e-03 1 1  ON 60
udFe_5 -4.7003e-04 1 1  ON 61
udFe_6 8.3852e-03 1 1  ON 62
udFe_7 -1.2594e-02 1 1  ON 63
udFe_8 5.4079e-03 1 1  ON 64
udFe_9 -6.3311e-03 1 1  ON 65
udFe_10 4.5883e-03 1 1  ON 66
udFe_11 -6.1088e-03 1 1  ON 67
udFe_12 8.0865e-04 1 1  ON 68
udFe_13 2.5554e-04 1 1  ON 69
udFe_14 -4.1736e-03 1 1  ON 70
udFe_15 5.5365e-04 1 1  ON 71
udFe_16 1.7441e-02 1 1  ON 72
udFe_17 -1.5500e-02 1 1  ON 73
udFe_18 1.3048e-02 1 1  ON 74
udFe_19 -3.6661e-03 1 1  ON 75
udFe_20 -8.6127e-03 1 1  ON 76
udFe_21 2.2794e-03 1 1  ON 77
udFe_22 2.5729e-04 1 1  ON 78
udFe_23 5.6660e-03 1 1  ON 79
udFe_24 -3.3847e-03 1 1  ON 80
udFe_25 3.6412e-04 1 1  ON 81
  </optVariables>
   Restore the number of walkers to 1, removing 0 walkers.
</opt>
</optimization-report>
  QMC Execution time = 1.2842e+01 secs 
  Reusing QMCFixedSampleLinearOptimize
 Using QMCCostFunction::QMCCostFunction
 Using Default Cost Function: Cost = <|E-E_ff|^2>

=========================================================
  Start QMCFixedSampleLinearOptimize
  File Root Fe.dump.s009 append = no 
=========================================================
  Skip QMCDriver::putQMCInfo 
  Resetting Properties of the walkers 1 x 13

=========================================================
  Start VMC
  File Root Fe.dump.s009 append = no 
=========================================================
Using existing walkers 
  Resetting Properties of the walkers 1 x 13

<vmc function="put">
  qmc_counter=4  my_counter=8
  time step      = 5.0000e-01
  blocks         = 40
  steps          = 1
  substeps       = 5
  current        = 0
  target samples = 1.6000e+04
  walkers/mpi    = 1

  stepsbetweensamples = 2
<parameter name="blocks" condition="int">40</parameter>
<parameter name="blocks_between_recompute" condition="int">0</parameter>
<parameter name="check_properties" condition="int">100</parameter>
<parameter name="checkproperties" condition="int">100</parameter>
<parameter name="current" condition="int">0</parameter>
<parameter name="dmcwalkersperthread" condition="real">1.5000e+01</parameter>
<parameter name="maxcpusecs" condition="real">3.6000e+05</parameter>
<parameter name="record_configs" condition="int">0</parameter>
<parameter name="record_walkers" condition="int">2</parameter>
<parameter name="recordconfigs" condition="int">0</parameter>
<parameter name="recordwalkers" condition="int">2</parameter>
<parameter name="rewind" condition="int">0</parameter>
<parameter name="samples" condition="real">1.6000e+04</parameter>
<parameter name="samplesperthread" condition="real">1.5000e+01</parameter>
<parameter name="steps" condition="int">1</parameter>
<parameter name="stepsbetweensamples" condition="int">2</parameter>
<parameter name="store_configs" condition="int">0</parameter>
<parameter name="storeconfigs" condition="int">0</parameter>
<parameter name="sub_steps" condition="int">5</parameter>
<parameter name="substeps" condition="int">5</parameter>
<parameter name="tau" condition="au">5.0000e-01</parameter>
<parameter name="time_step" condition="au">5.0000e-01</parameter>
<parameter name="timestep" condition="au">5.0000e-01</parameter>
<parameter name="use_drift" condition="string">no</parameter>
<parameter name="usedrift" condition="string">no</parameter>
<parameter name="walkers" condition="int">1</parameter>
<parameter name="warmup_steps" condition="int">5</parameter>
<parameter name="warmupsteps" condition="int">5</parameter>
  DumpConfig==false Nothing (configurations, state) will be saved.
  Walker Samples are dumped every 2 steps.
</vmc>
  EstimatorManagerBase::add replace LocalEnergy estimator.
  EstimatorManagerBase::add replace LocalEnergy estimator.
<optimization-report>
<vmc stage="main" blocks="40">
  Cannot make clones again. Use existing 1 clones
  Initial partition of walkers 0 1 
  Using Particle by Particle moves
  Walker moves without drift
  Total Sample Size   =16320
  Walker distribution on root = 0 1 
  Using Locality Approximation
===== Memory Usage after the buffer registration =====
Available memory on node 0, free + buffers : 76493 MB
Memory footprint by rank 0 on node 0       : 154 MB
==================================================
====================================================
  SimpleFixedNodeBranch::finalize after a VMC block
    QMC counter        = 9
    time step          = 0.5
    reference energy   = -123.311
    reference variance = 1.49408
====================================================
  Execution time = 9.9440e+00
</vmc>
<opt stage="setup">
  <log>
   Reading configurations from h5FileRoot Fe.dump.s009
  QMCCostFunction is created with 1 threads.
  Using Nonlocal PP in Opt: no
   Number of samples loaded to each thread : 15 
  VMC Eavg = -1.2328e+02
  VMC Evar = 1.3973e+00
  Total weights = 1.6320e+04
  Execution time = 2.3086e+00
  </log>
</opt>
<opt stage="main" walkers="16320">
  <log>

*****************************************
Building overlap and Hamiltonian matrices
*****************************************

Among totally 82 optimized parameters, largest LM parameter change : 6.0626e-02 at parameter 21

******************************************************************************
Init Cost =  -1.1082e+02    New Cost =  -1.1082e+02  Delta Cost =  -7.2260e-03
******************************************************************************

The new set of parameters is valid. Updating the trial wave function!

*****************************************************************************
Applying the update for shift_i =   1.0000e-02     and shift_s =   3.9062e-03
*****************************************************************************
  Execution time = 1.2283e+01
  </log>
  <optVariables href="Fe.dump.s009.opt.xml">
uu_0 1.0869e-01 1 1  ON 0
uu_1 -2.1274e-02 1 1  ON 1
uu_2 -5.1369e-02 1 1  ON 2
uu_3 -6.7987e-02 1 1  ON 3
uu_4 -8.2251e-02 1 1  ON 4
uu_5 -7.7310e-02 1 1  ON 5
uu_6 -7.3263e-02 1 1  ON 6
uu_7 -5.9482e-02 1 1  ON 7
uu_8 -4.2395e-02 1 1  ON 8
[...]
  Start VMC
  File Root Fe.dump.s013 append = no 
=========================================================
Using existing walkers 
  Resetting Properties of the walkers 1 x 13

<vmc function="put">
  qmc_counter=8  my_counter=12
  time step      = 5.0000e-01
  blocks         = 40
  steps          = 1
  substeps       = 5
  current        = 0
  target samples = 1.6000e+04
  walkers/mpi    = 1

  stepsbetweensamples = 2
<parameter name="blocks" condition="int">40</parameter>
<parameter name="blocks_between_recompute" condition="int">0</parameter>
<parameter name="check_properties" condition="int">100</parameter>
<parameter name="checkproperties" condition="int">100</parameter>
<parameter name="current" condition="int">0</parameter>
<parameter name="dmcwalkersperthread" condition="real">1.5000e+01</parameter>
<parameter name="maxcpusecs" condition="real">3.6000e+05</parameter>
<parameter name="record_configs" condition="int">0</parameter>
<parameter name="record_walkers" condition="int">2</parameter>
<parameter name="recordconfigs" condition="int">0</parameter>
<parameter name="recordwalkers" condition="int">2</parameter>
<parameter name="rewind" condition="int">0</parameter>
<parameter name="samples" condition="real">1.6000e+04</parameter>
<parameter name="samplesperthread" condition="real">1.5000e+01</parameter>
<parameter name="steps" condition="int">1</parameter>
<parameter name="stepsbetweensamples" condition="int">2</parameter>
<parameter name="store_configs" condition="int">0</parameter>
<parameter name="storeconfigs" condition="int">0</parameter>
<parameter name="sub_steps" condition="int">5</parameter>
<parameter name="substeps" condition="int">5</parameter>
<parameter name="tau" condition="au">5.0000e-01</parameter>
<parameter name="time_step" condition="au">5.0000e-01</parameter>
<parameter name="timestep" condition="au">5.0000e-01</parameter>
<parameter name="use_drift" condition="string">no</parameter>
<parameter name="usedrift" condition="string">no</parameter>
<parameter name="walkers" condition="int">1</parameter>
<parameter name="warmup_steps" condition="int">5</parameter>
<parameter name="warmupsteps" condition="int">5</parameter>
  DumpConfig==false Nothing (configurations, state) will be saved.
  Walker Samples are dumped every 2 steps.
</vmc>
  EstimatorManagerBase::add replace LocalEnergy estimator.
  EstimatorManagerBase::add replace LocalEnergy estimator.
<optimization-report>
<vmc stage="main" blocks="40">
  Cannot make clones again. Use existing 1 clones
  Initial partition of walkers 0 1 
  Using Particle by Particle moves
  Walker moves without drift
  Total Sample Size   =16320
  Walker distribution on root = 0 1 
  Using Locality Approximation
===== Memory Usage after the buffer registration =====
Available memory on node 0, free + buffers : 76461 MB
Memory footprint by rank 0 on node 0       : 154 MB
==================================================
====================================================
  SimpleFixedNodeBranch::finalize after a VMC block
    QMC counter        = 13
    time step          = 0.5
    reference energy   = -123.262
    reference variance = 2.04033
====================================================
  Execution time = 9.9629e+00
</vmc>
<opt stage="setup">
  <log>
   Reading configurations from h5FileRoot Fe.dump.s013
  QMCCostFunction is created with 1 threads.
  Using Nonlocal PP in Opt: no
   Number of samples loaded to each thread : 15 
  VMC Eavg = -1.2329e+02
  VMC Evar = 1.2927e+00
  Total weights = 1.6320e+04
  Execution time = 2.3631e+00
  </log>
</opt>
<opt stage="main" walkers="16320">
  <log>

*****************************************
Building overlap and Hamiltonian matrices
*****************************************

Among totally 82 optimized parameters, largest LM parameter change : 6.0906e-02 at parameter 27

******************************************************************************
Init Cost =  -1.1083e+02    New Cost =  -1.1083e+02  Delta Cost =  -2.0764e-03
******************************************************************************

The new set of parameters is valid. Updating the trial wave function!

*****************************************************************************
Applying the update for shift_i =   1.0000e-02     and shift_s =   3.9062e-03
*****************************************************************************
  Execution time = 1.2359e+01
  </log>
  <optVariables href="Fe.dump.s013.opt.xml">
uu_0 1.1103e-01 1 1  ON 0
uu_1 -1.8577e-02 1 1  ON 1
uu_2 -4.7704e-02 1 1  ON 2
uu_3 -6.0121e-02 1 1  ON 3
uu_4 -7.5508e-02 1 1  ON 4
uu_5 -7.0599e-02 1 1  ON 5
uu_6 -6.7973e-02 1 1  ON 6
uu_7 -6.0913e-02 1 1  ON 7
uu_8 -5.0283e-02 1 1  ON 8
uu_9 -3.1132e-02 1 1  ON 9
ud_0 2.5000e-01 1 1  ON 10
ud_1 9.9624e-02 1 1  ON 11
ud_2 6.7198e-02 1 1  ON 12
ud_3 3.9900e-02 1 1  ON 13
ud_4 1.9840e-02 1 1  ON 14
ud_5 7.2125e-03 1 1  ON 15
ud_6 -7.0914e-03 1 1  ON 16
ud_7 -1.0677e-02 1 1  ON 17
ud_8 4.5415e-03 1 1  ON 18
ud_9 9.3130e-03 1 1  ON 19
eFe_0 -1.0990e+00 1 1  ON 20
eFe_1 -8.1795e-01 1 1  ON 21
eFe_2 -2.0654e-01 1 1  ON 22
eFe_3 7.3325e-02 1 1  ON 23
eFe_4 2.8060e-01 1 1  ON 24
eFe_5 4.3467e-01 1 1  ON 25
eFe_6 5.0831e-01 1 1  ON 26
eFe_7 4.7636e-01 1 1  ON 27
eFe_8 2.5498e-01 1 1  ON 28
eFe_9 7.4823e-02 1 1  ON 29
uuFe_0 6.0542e-05 1 1  ON 30
uuFe_1 7.8109e-05 1 1  ON 31
uuFe_2 6.2691e-03 1 1  ON 32
uuFe_3 -1.5804e-03 1 1  ON 33
uuFe_4 -2.3403e-03 1 1  ON 34
uuFe_5 -1.3940e-04 1 1  ON 35
uuFe_6 1.0465e-04 1 1  ON 36
uuFe_7 5.3672e-04 1 1  ON 37
uuFe_8 1.5801e-02 1 1  ON 38
uuFe_9 -4.5008e-05 1 1  ON 39
uuFe_10 -5.4207e-05 1 1  ON 40
uuFe_11 -5.8399e-03 1 1  ON 41
uuFe_12 -1.0037e-02 1 1  ON 42
uuFe_13 5.7955e-03 1 1  ON 43
uuFe_14 9.7648e-03 1 1  ON 44
uuFe_15 7.3149e-06 1 1  ON 45
uuFe_16 -9.9354e-03 1 1  ON 46
uuFe_17 1.9184e-02 1 1  ON 47
uuFe_18 -7.3979e-03 1 1  ON 48
uuFe_19 1.0532e-02 1 1  ON 49
uuFe_20 -1.3938e-03 1 1  ON 50
uuFe_21 -2.1789e-03 1 1  ON 51
uuFe_22 -9.8014e-04 1 1  ON 52
uuFe_23 2.1072e-03 1 1  ON 53
uuFe_24 -4.0654e-04 1 1  ON 54
uuFe_25 9.1353e-05 1 1  ON 55
udFe_0 9.9805e-04 1 1  ON 56
udFe_1 -2.8432e-05 1 1  ON 57
udFe_2 1.0208e-02 1 1  ON 58
udFe_3 1.1906e-03 1 1  ON 59
udFe_4 -1.1369e-04 1 1  ON 60
udFe_5 -4.3826e-04 1 1  ON 61
udFe_6 4.7954e-03 1 1  ON 62
udFe_7 -3.6640e-03 1 1  ON 63
udFe_8 1.5459e-02 1 1  ON 64
udFe_9 -3.5277e-03 1 1  ON 65
udFe_10 5.2893e-03 1 1  ON 66
udFe_11 -2.1744e-02 1 1  ON 67
udFe_12 -4.6944e-03 1 1  ON 68
udFe_13 -1.4938e-03 1 1  ON 69
udFe_14 3.8513e-03 1 1  ON 70
udFe_15 4.9468e-05 1 1  ON 71
udFe_16 1.0520e-02 1 1  ON 72
udFe_17 -1.7411e-02 1 1  ON 73
udFe_18 4.1379e-02 1 1  ON 74
udFe_19 -4.5522e-03 1 1  ON 75
udFe_20 -3.8269e-03 1 1  ON 76
udFe_21 -1.1557e-02 1 1  ON 77
udFe_22 3.4114e-03 1 1  ON 78
udFe_23 2.1433e-03 1 1  ON 79
udFe_24 3.2841e-03 1 1  ON 80
udFe_25 -1.7816e-03 1 1  ON 81
  </optVariables>
   Restore the number of walkers to 1, removing 0 walkers.
</opt>
</optimization-report>
  QMC Execution time = 1.2879e+01 secs 
  Reusing QMCFixedSampleLinearOptimize
 Using QMCCostFunction::QMCCostFunction
 Using Default Cost Function: Cost = <|E-E_ff|^2>

=========================================================
  Start QMCFixedSampleLinearOptimize
  File Root Fe.dump.s014 append = no 
=========================================================
  Skip QMCDriver::putQMCInfo 
  Resetting Properties of the walkers 1 x 13

=========================================================
  Start VMC
  File Root Fe.dump.s014 append = no 
=========================================================
Using existing walkers 
  Resetting Properties of the walkers 1 x 13

<vmc function="put">
  qmc_counter=9  my_counter=13
  time step      = 5.0000e-01
  blocks         = 40
  steps          = 1
  substeps       = 5
  current        = 0
  target samples = 1.6000e+04
  walkers/mpi    = 1

  stepsbetweensamples = 2
<parameter name="blocks" condition="int">40</parameter>
<parameter name="blocks_between_recompute" condition="int">0</parameter>
<parameter name="check_properties" condition="int">100</parameter>
<parameter name="checkproperties" condition="int">100</parameter>
<parameter name="current" condition="int">0</parameter>
<parameter name="dmcwalkersperthread" condition="real">1.5000e+01</parameter>
<parameter name="maxcpusecs" condition="real">3.6000e+05</parameter>
<parameter name="record_configs" condition="int">0</parameter>
<parameter name="record_walkers" condition="int">2</parameter>
<parameter name="recordconfigs" condition="int">0</parameter>
<parameter name="recordwalkers" condition="int">2</parameter>
<parameter name="rewind" condition="int">0</parameter>
<parameter name="samples" condition="real">1.6000e+04</parameter>
<parameter name="samplesperthread" condition="real">1.5000e+01</parameter>
<parameter name="steps" condition="int">1</parameter>
<parameter name="stepsbetweensamples" condition="int">2</parameter>
<parameter name="store_configs" condition="int">0</parameter>
<parameter name="storeconfigs" condition="int">0</parameter>
<parameter name="sub_steps" condition="int">5</parameter>
<parameter name="substeps" condition="int">5</parameter>
<parameter name="tau" condition="au">5.0000e-01</parameter>
<parameter name="time_step" condition="au">5.0000e-01</parameter>
<parameter name="timestep" condition="au">5.0000e-01</parameter>
<parameter name="use_drift" condition="string">no</parameter>
<parameter name="usedrift" condition="string">no</parameter>
<parameter name="walkers" condition="int">1</parameter>
<parameter name="warmup_steps" condition="int">5</parameter>
<parameter name="warmupsteps" condition="int">5</parameter>
  DumpConfig==false Nothing (configurations, state) will be saved.
  Walker Samples are dumped every 2 steps.
</vmc>
  EstimatorManagerBase::add replace LocalEnergy estimator.
  EstimatorManagerBase::add replace LocalEnergy estimator.
<optimization-report>
<vmc stage="main" blocks="40">
  Cannot make clones again. Use existing 1 clones
  Initial partition of walkers 0 1 
  Using Particle by Particle moves
  Walker moves without drift
  Total Sample Size   =16320
  Walker distribution on root = 0 1 
  Using Locality Approximation
===== Memory Usage after the buffer registration =====
Available memory on node 0, free + buffers : 76454 MB
Memory footprint by rank 0 on node 0       : 154 MB
==================================================
====================================================
  SimpleFixedNodeBranch::finalize after a VMC block
    QMC counter        = 14
    time step          = 0.5
    reference energy   = -123.35
    reference variance = 1.32926
====================================================
  Execution time = 1.0044e+01
</vmc>
<opt stage="setup">
  <log>
   Reading configurations from h5FileRoot Fe.dump.s014
  QMCCostFunction is created with 1 threads.
  Using Nonlocal PP in Opt: no
   Number of samples loaded to each thread : 15 
  VMC Eavg = -1.2329e+02
  VMC Evar = 1.4078e+00
  Total weights = 1.6320e+04
  Execution time = 2.3923e+00
  </log>
</opt>
<opt stage="main" walkers="16320">
  <log>

*****************************************
Building overlap and Hamiltonian matrices
*****************************************

Among totally 82 optimized parameters, largest LM parameter change : 9.1514e-02 at parameter 21

******************************************************************************
Init Cost =  -1.1082e+02    New Cost =  -1.1082e+02  Delta Cost =  -1.7841e-03
******************************************************************************

The new set of parameters is valid. Updating the trial wave function!

*****************************************************************************
Applying the update for shift_i =   1.0000e-02     and shift_s =   3.9062e-03
*****************************************************************************
  Execution time = 1.2469e+01
  </log>
  <optVariables href="Fe.dump.s014.opt.xml">
uu_0 1.5349e-01 1 1  ON 0
uu_1 1.9929e-02 1 1  ON 1
uu_2 -9.8965e-03 1 1  ON 2
uu_3 -2.1489e-02 1 1  ON 3
uu_4 -3.5881e-02 1 1  ON 4
uu_5 -3.4739e-02 1 1  ON 5
uu_6 -2.2801e-02 1 1  ON 6
uu_7 -2.3256e-02 1 1  ON 7
uu_8 8.6235e-03 1 1  ON 8
uu_9 2.0318e-02 1 1  ON 9
ud_0 2.8628e-01 1 1  ON 10
ud_1 1.3934e-01 1 1  ON 11
ud_2 1.0890e-01 1 1  ON 12
ud_3 8.9616e-02 1 1  ON 13
ud_4 6.8331e-02 1 1  ON 14
ud_5 4.7406e-02 1 1  ON 15
ud_6 3.0472e-02 1 1  ON 16
ud_7 -9.5492e-03 1 1  ON 17
ud_8 -1.4746e-02 1 1  ON 18
ud_9 1.5454e-02 1 1  ON 19
eFe_0 -1.1361e+00 1 1  ON 20
eFe_1 -9.0946e-01 1 1  ON 21
eFe_2 -1.5777e-01 1 1  ON 22
eFe_3 1.0791e-01 1 1  ON 23
eFe_4 3.2199e-01 1 1  ON 24
eFe_5 4.5550e-01 1 1  ON 25
eFe_6 5.4228e-01 1 1  ON 26
eFe_7 4.8524e-01 1 1  ON 27
eFe_8 2.7751e-01 1 1  ON 28
eFe_9 6.3682e-02 1 1  ON 29
uuFe_0 -1.9012e-04 1 1  ON 30
uuFe_1 5.4134e-04 1 1  ON 31
uuFe_2 9.6393e-03 1 1  ON 32
uuFe_3 -1.6115e-03 1 1  ON 33
uuFe_4 -3.2356e-03 1 1  ON 34
uuFe_5 -7.4696e-05 1 1  ON 35
uuFe_6 2.7093e-03 1 1  ON 36
uuFe_7 2.9326e-03 1 1  ON 37
uuFe_8 2.2061e-02 1 1  ON 38
uuFe_9 -2.4921e-03 1 1  ON 39
uuFe_10 -1.3664e-04 1 1  ON 40
uuFe_11 -1.2010e-02 1 1  ON 41
uuFe_12 -1.0584e-02 1 1  ON 42
uuFe_13 7.7530e-03 1 1  ON 43
uuFe_14 1.0688e-02 1 1  ON 44
uuFe_15 -1.1110e-04 1 1  ON 45
uuFe_16 -4.4252e-03 1 1  ON 46
uuFe_17 2.0240e-02 1 1  ON 47
uuFe_18 -3.8629e-03 1 1  ON 48
uuFe_19 7.5997e-03 1 1  ON 49
uuFe_20 -4.6788e-03 1 1  ON 50
uuFe_21 -9.5040e-04 1 1  ON 51
uuFe_22 -3.5296e-04 1 1  ON 52
uuFe_23 3.7316e-03 1 1  ON 53
uuFe_24 -1.5889e-03 1 1  ON 54
uuFe_25 2.6337e-05 1 1  ON 55
udFe_0 7.1294e-04 1 1  ON 56
udFe_1 7.9246e-05 1 1  ON 57
udFe_2 1.0606e-02 1 1  ON 58
udFe_3 4.7240e-04 1 1  ON 59
udFe_4 -1.4350e-03 1 1  ON 60
udFe_5 -4.1078e-04 1 1  ON 61
udFe_6 4.9046e-03 1 1  ON 62
udFe_7 -3.2072e-03 1 1  ON 63
udFe_8 1.9185e-02 1 1  ON 64
udFe_9 -3.3549e-03 1 1  ON 65
udFe_10 3.5643e-03 1 1  ON 66
udFe_11 -1.9720e-02 1 1  ON 67
udFe_12 -7.9198e-03 1 1  ON 68
udFe_13 1.4855e-03 1 1  ON 69
udFe_14 6.8374e-03 1 1  ON 70
udFe_15 7.1920e-05 1 1  ON 71
udFe_16 8.9318e-03 1 1  ON 72
udFe_17 -6.6783e-03 1 1  ON 73
udFe_18 2.9560e-02 1 1  ON 74
udFe_19 6.8793e-04 1 1  ON 75
udFe_20 -6.7581e-03 1 1  ON 76
udFe_21 -8.6612e-03 1 1  ON 77
udFe_22 1.9589e-03 1 1  ON 78
udFe_23 5.1148e-03 1 1  ON 79
udFe_24 9.8585e-04 1 1  ON 80
udFe_25 -9.8139e-04 1 1  ON 81
  </optVariables>
   Restore the number of walkers to 1, removing 0 walkers.
</opt>
</optimization-report>
  QMC Execution time = 1.2807e+01 secs 

=========================================================
  Start VMC
  File Root Fe.dump.s015 append = no 
=========================================================
  Using the current 1 walkers.
  Total number of walkers: 1.0880e+03
  Total weight: 1.0880e+03
  Resetting Properties of the walkers 1 x 13

<vmc function="put">
  qmc_counter=0  my_counter=0
  time step      = 1.0000e-01
  blocks         = 200
  steps          = 1
  substeps       = 30
  current        = 0
  target samples = 1.0880e+03
  walkers/mpi    = 1

  stepsbetweensamples = 200
<parameter name="blocks" condition="int">200</parameter>
<parameter name="blocks_between_recompute" condition="int">0</parameter>
<parameter name="check_properties" condition="int">100</parameter>
<parameter name="checkproperties" condition="int">100</parameter>
<parameter name="current" condition="int">0</parameter>
<parameter name="dmcwalkersperthread" condition="real">1.0000e+00</parameter>
<parameter name="maxcpusecs" condition="real">3.6000e+05</parameter>
<parameter name="record_configs" condition="int">0</parameter>
<parameter name="record_walkers" condition="int">200</parameter>
<parameter name="recordconfigs" condition="int">0</parameter>
<parameter name="recordwalkers" condition="int">200</parameter>
<parameter name="rewind" condition="int">0</parameter>
<parameter name="samples" condition="real">1.0880e+03</parameter>
<parameter name="samplesperthread" condition="real">1.0000e+00</parameter>
<parameter name="steps" condition="int">1</parameter>
<parameter name="stepsbetweensamples" condition="int">200</parameter>
<parameter name="store_configs" condition="int">0</parameter>
<parameter name="storeconfigs" condition="int">0</parameter>
<parameter name="sub_steps" condition="int">30</parameter>
<parameter name="substeps" condition="int">30</parameter>
<parameter name="tau" condition="au">1.0000e-01</parameter>
<parameter name="time_step" condition="au">1.0000e-01</parameter>
<parameter name="timestep" condition="au">1.0000e-01</parameter>
<parameter name="use_drift" condition="string">no</parameter>
<parameter name="usedrift" condition="string">no</parameter>
<parameter name="walkers" condition="int">1</parameter>
<parameter name="warmup_steps" condition="int">100</parameter>
<parameter name="warmupsteps" condition="int">100</parameter>
  DumpConfig==false Nothing (configurations, state) will be saved.
  Walker Samples are dumped every 200 steps.
</vmc>
  EstimatorManagerBase::add replace LocalEnergy estimator.
  Cannot make clones again. Use existing 1 clones
  Initial partition of walkers 0 1 

  Using Particle by Particle moves
  Walker moves without drift
  Total Sample Size   =1088
  Walker distribution on root = 0 1 
  Using Locality Approximation
===== Memory Usage after the buffer registration =====
Available memory on node 0, free + buffers : 76446 MB
Memory footprint by rank 0 on node 0       : 154 MB
==================================================
  Anonymous Buffer size per walker : 2572456 Bytes.
MEMORY increase 2 MB VMC::resetRun
====================================================
  SimpleFixedNodeBranch::finalize after a VMC block
    QMC counter        = 15
    time step          = 0.1
    reference energy   = -123.255
    reference variance = 1.12029
====================================================
  QMC Execution time = 1.5514e+02 secs 

=========================================================
  Start DMC
  File Root Fe.dump.s016 append = no 
=========================================================
Using existing walkers 
  Resetting Properties of the walkers 1 x 13
  EstimatorManagerBase::add replace LocalEnergy estimator.
  Cannot make clones again. Use existing 1 clones
  Total number of walkers: 1.0880e+03
  Total weight: 1.0880e+03
  Creating WalkerController: target  number of walkers = 16000
  Using WalkerControlMPI for dynamic population control.
  START ALL OVER 
  WalkerControlBase parameters 
    maxCopy = 2
    Max Walkers per MPI rank 29
    Min Walkers per MPI rank 3
    Using non-blocking send/recv
  QMC counter      = 16
  time step        = 1.0000e-02
  effective time step = 1.0000e-02
  trial energy     = -1.2325e+02
  reference energy = -1.2325e+02
  Feedback = 1.0000e+00
  reference variance = 1.1203e+00
  target walkers = 16000
  branching cutoff scheme classic
  branch cutoff = 5.0000e+01 7.5000e+01
  Max and minimum walkers per node= 29 3
  QMC Status (BranchMode) = 0000001101
  Total number of walkers: 1.6320e+04
  Total weight: 1.6320e+04
  Initial partition of walkers on a node: 0 15 
  Updates by particle-by-particle moves
  DMC moves are rejected when a node crossing is detected
  Using Non-local T-moves v0, M. Casula, PRB 74, 161102(R) (2006)
===== Memory Usage after the buffer registration =====
Available memory on node 0, free + buffers : 75433 MB
Memory footprint by rank 0 on node 0       : 173 MB
==================================================
SimpleFixedNodeBranch::checkParameters 
  Average Energy of a population  = -123.252
  Energy Variance = 1.12048

  Fluctuating population
  Persistent walkers are killed after 1 MC sweeps
  BranchInterval = 1
  Steps per block = 20
  Number of blocks = 1000

  DMC Engine Initialization = 3.7862e+00 secs 

 Warmup is completed after 100

  TauEff     = 9.6317e-03
 TauEff/Tau = 9.6317e-01
  Etrial     = -1.2331e+02
 Running average of energy = -1.2333e+02
                  Variance = 1.4502e+00
branch cutoff = 1.4502e+01 2.1752e+01
