TACC:  Starting up job 3912529 
TACC:  Starting parallel tasks... 
  Input file(s): Ge.log.qmc.in-wfj.xml 

=====================================================
                    QMCPACK 3.7.9

       (c) Copyright 2003-  QMCPACK developers

                    Please cite:
 J. Kim et al. J. Phys. Cond. Mat. 30 195901 (2018)
      https://doi.org/10.1088/1361-648X/aab9c3

  Git branch: develop
  Last git commit: 9a049a3fb3e0d7110d61a924a52203fd8296522a
  Last git commit date: Mon Jul 1 13:42:43 2019 -0500
  Last git commit subject: Merge pull request #1686 from ye-luo/rename-to-LCAOHDFParser
=====================================================
  Global options 

  Total number of MPI ranks = 1024
  Number of MPI groups      = 1
  MPI group ID              = 0
  Number of ranks in group  = 1024
  MPI ranks per node        = 64
  OMP 1st level threads     = 1
  OMP nested threading disabled or only 1 thread on the 2nd level

  Precision used in this calculation, see definitions in the manual:
  Base precision      = double
  Full precision      = double

  Structure-of-arrays (SoA) optimization enabled

  Input XML = Ge.log.qmc.in-wfj.xml

  Project = Ge.log
  date    = 2019-07-01 18:29:46 CDT
  host    = c401-014.stampede2.tacc.utexas.edu

 Random Number
 -------------
  Offset for the random number seeds based on time: 874

  Range of prime numbers to use as seeds over processors and threads = 6803-16381


 Particle Set 
 ------------
  Name: ion0
  All the species have the same mass 1
  Particle set size: 1

 Particle Set 
 ------------
  Name: e
  All the species have the same mass 1
  Particle set size: 4

 Wavefunction setup: 
 ------------------- 
  Name: psi0
  LCAO: SoaAtomicBasisSet<MultiQuintic,1>
Reading BasisSet from HDF5 file:Ge.log.h5
<input node="atomicBasisSet" name="gaussian" expandYlm="pyscf" angular="spherical" elementType="Ge" normalized="no" type="Numerical" expM="0" />
  AO BasisSet for Ge
   Spherical Harmonics contain (-1)^m factor
   Angular momentum m expanded as -l, ... ,l, with the exception of L=1 (1,-1,0)
   Grid is created by the input paremters in h5
    Using log grid ri = 1e-06 rf = 100 npts = 1001
   R(n,l,m,s) 0 0 0 0
   R(n,l,m,s) 1 0 0 0
   R(n,l,m,s) 2 0 0 0
   R(n,l,m,s) 3 0 0 0
   R(n,l,m,s) 4 1 0 0
   R(n,l,m,s) 5 1 0 0
   R(n,l,m,s) 6 1 0 0
   R(n,l,m,s) 7 1 0 0
   R(n,l,m,s) 8 2 0 0
   R(n,l,m,s) 9 2 0 0
   R(n,l,m,s) 10 2 0 0
   R(n,l,m,s) 11 3 0 0
   R(n,l,m,s) 12 3 0 0
   R(n,l,m,s) 13 4 0 0
Expanding Ylm as L=1 as (1,-1,0) and L>1 as -l,-l+1,...,l-1,l
   Adding 1 spherical orbitals
   Adding 1 spherical orbitals
   Adding 1 spherical orbitals
   Adding 1 spherical orbitals
   Adding 3 spherical orbitals
   Adding 3 spherical orbitals
   Adding 3 spherical orbitals
   Adding 3 spherical orbitals
   Adding 5 spherical orbitals
   Adding 5 spherical orbitals
   Adding 5 spherical orbitals
   Adding 7 spherical orbitals
   Adding 7 spherical orbitals
   Adding 9 spherical orbitals
  Setting cutoff radius 14.9968

   Maximum Angular Momentum  = 4
   Number of Radial functors = 14
   Basis size                = 54

  Created SPOSet builder named 'LCAOBSet' of type molecularorbital
Reuse SPOSetBuilder "LCAOBSet" type MolecularOrbital
  Building SPOSet '' with '' basis set.
Reuse SPOSetBuilder "LCAOBSet" type MolecularOrbital
  Building SPOSet '' with '' basis set.
  Creating a determinant updet group=0 sposet=updet
  Reusing a SPO set updet
Using DiracDeterminant with DelayedUpdate engine
Using rank-1 Sherman-Morrison Fahy update

  Creating a determinant downdet group=1 sposet=downdet
  Reusing a SPO set downdet
Using DiracDeterminant with DelayedUpdate engine
Using rank-1 Sherman-Morrison Fahy update

  FermionWF = SlaterDet

   Jastrow
   -------
    Name: J2   Type: Two-Body   Function: Bspline

    Radial function for species: u - u
     Number of parameters: 10
     Cusp: -0.25
     Cutoff radius: 10

     Name                        Value Type Recompute Use Index
     ---- ---------------------------- ---- --------- --- -----
     uu_0                 0.000000e+00    1         1  ON     0
     uu_1                 0.000000e+00    1         1  ON     1
     uu_2                 0.000000e+00    1         1  ON     2
     uu_3                 0.000000e+00    1         1  ON     3
     uu_4                 0.000000e+00    1         1  ON     4
     uu_5                 0.000000e+00    1         1  ON     5
     uu_6                 0.000000e+00    1         1  ON     6
     uu_7                 0.000000e+00    1         1  ON     7
     uu_8                 0.000000e+00    1         1  ON     8
     uu_9                 0.000000e+00    1         1  ON     9

    Radial function for species: u - d
     Number of parameters: 10
     Cusp: -0.5
     Cutoff radius: 10

     Name                        Value Type Recompute Use Index
     ---- ---------------------------- ---- --------- --- -----
     ud_0                 0.000000e+00    1         1  ON     0
     ud_1                 0.000000e+00    1         1  ON     1
     ud_2                 0.000000e+00    1         1  ON     2
     ud_3                 0.000000e+00    1         1  ON     3
     ud_4                 0.000000e+00    1         1  ON     4
     ud_5                 0.000000e+00    1         1  ON     5
     ud_6                 0.000000e+00    1         1  ON     6
     ud_7                 0.000000e+00    1         1  ON     7
     ud_8                 0.000000e+00    1         1  ON     8
     ud_9                 0.000000e+00    1         1  ON     9


   Jastrow
   -------
    Name: J1   Type: One-Body   Function: Bspline

    Radial function for element: Ge
     Number of parameters: 10
     Cusp: 0
     Cutoff radius: 10

      Name                        Value Type Recompute Use Index
     ----- ---------------------------- ---- --------- --- -----
     eGe_0                 0.000000e+00    1         1  ON     0
     eGe_1                 0.000000e+00    1         1  ON     1
     eGe_2                 0.000000e+00    1         1  ON     2
     eGe_3                 0.000000e+00    1         1  ON     3
     eGe_4                 0.000000e+00    1         1  ON     4
     eGe_5                 0.000000e+00    1         1  ON     5
     eGe_6                 0.000000e+00    1         1  ON     6
     eGe_7                 0.000000e+00    1         1  ON     7
     eGe_8                 0.000000e+00    1         1  ON     8
     eGe_9                 0.000000e+00    1         1  ON     9


   Jastrow
   -------
    Name: J3   Type: eeI   Function: polynomial

     Ion: Ge   electron-electron: u - u
      Number of parameters for e-e: 3, for e-I: 3
      Cutoff radius: 10

Expected 26 parameters, but found 0 in PolynomialFunctor3D.
     Ion: Ge   electron-electron: u - d
      Number of parameters for e-e: 3, for e-I: 3
      Cutoff radius: 10

Expected 26 parameters, but found 0 in PolynomialFunctor3D.
  QMCHamiltonian::addOperator Kinetic to H, physical Hamiltonian 
  QMCHamiltonian::addOperator ElecElec to H, physical Hamiltonian 
QMCHamiltonian::addOperatorType added type coulomb named ElecElec
  CoulombAA for ion0 is not created.  Number of particles == 1 and nonPeriodic

  ECPotential builder for pseudopotential 

  Adding pseudopotential for Ge
   Linear grid  ri=0 rf=10 npts = 10001
    ECPComponentBuilder::buildSemiLocalAndLocal 
    Assuming Hartree unit
   Number of angular momentum channels 4
   Maximum angular momentum channel 3
   Creating a Linear Grid Rmax=4.425
  Using global grid with delta = 0.001
   Making L=3 a local potential with a radial cutoff of 9.999
    Non-local pseudopotential parameters
    Maximum angular mementum = 2
    Number of non-local channels = 3
       l(0)=0
       l(1)=1
       l(2)=2
    Cutoff radius = 4.425
    Spherical grids and weights: 
                        1                 0                 0       0.08333333333
                       -1   1.224646799e-16                 0       0.08333333333
             0.4472135955       0.894427191                 0       0.08333333333
            -0.4472135955      0.7236067977      0.5257311121       0.08333333333
             0.4472135955      0.2763932023      0.8506508084       0.08333333333
            -0.4472135955     -0.2763932023      0.8506508084       0.08333333333
             0.4472135955     -0.7236067977      0.5257311121       0.08333333333
            -0.4472135955      -0.894427191   1.095357397e-16       0.08333333333
             0.4472135955     -0.7236067977     -0.5257311121       0.08333333333
            -0.4472135955     -0.2763932023     -0.8506508084       0.08333333333
             0.4472135955      0.2763932023     -0.8506508084       0.08333333333
            -0.4472135955      0.7236067977     -0.5257311121       0.08333333333
    Maximum cutoff radius 4.425
  QMCHamiltonian::addOperator LocalECP to H, physical Hamiltonian 

  Using NonLocalECP potential 
    Maximum grid on a sphere for NonLocalECPotential: 12
  QMCHamiltonian::addOperator NonLocalECP to H, physical Hamiltonian 
QMCHamiltonian::addOperatorType added type pseudo named PseudoPot

  QMCHamiltonian::add2WalkerProperty added
    4 to P::PropertyList 
    0 to P::Collectables 
    starting Index of the observables in P::PropertyList = 9
ParticleSetPool::randomize 
<init source="ion0" target="e">
</init>
  Initialization Execution time = 0.6955 secs
=========================================================
 Summary of QMC systems 
=========================================================
ParticleSetPool has: 

  ParticleSet 'e' contains 4 particles :  u(3) d(1)

    u -1.2485645477e-01 -3.7968087821e-01  4.7316872933e-01
    u  2.5073958357e+00 -1.6596105424e+00 -1.1914705900e+00
    u  7.6501891076e-01 -6.5838258485e-01  1.4267630074e-01
    d -6.5344636673e-01 -9.3228523063e-01 -9.7282255336e-01

  Distance table for dissimilar particles (A-B):
    source: ion0  target: e
    Using structure-of-arrays (SoA) data layout
    Distance computations use open boundary conditions in 3D.

  Distance table for similar particles (A-A):
    source/target: e
    Using structure-of-arrays (SoA) data layout
    Distance computations use open boundary conditions in 3D.


  ParticleSet 'ion0' contains 1 particles :  Ge(1)

    Ge  0.0000000000e+00  0.0000000000e+00  0.0000000000e+00


  Hamiltonian h0
  Kinetic         Kinetic energy
  ElecElec        CoulombAB source=e

  LocalECP        LocalECPotential: ion0
  NonLocalECP     NonLocalECPotential: ion0


=========================================================
  Start VMC
  File Root Ge.log.s000 append = no 
=========================================================
  Adding 1 walkers to 0 existing sets
  Total number of walkers: 1.0240000000e+03
  Total weight: 1.0240000000e+03
  Resetting Properties of the walkers 1 x 13

<vmc function="put">
  qmc_counter=0  my_counter=0
  time step      = 1.5000000000e-01
  blocks         = 200
  steps          = 1
  substeps       = 5
  current        = 0
  target samples = 1.0240000000e+03
  walkers/mpi    = 1

  stepsbetweensamples = 200
<parameter name="blocks" condition="int">200</parameter>
<parameter name="blocks_between_recompute" condition="int">0</parameter>
<parameter name="check_properties" condition="int">100</parameter>
<parameter name="checkproperties" condition="int">100</parameter>
<parameter name="current" condition="int">0</parameter>
<parameter name="dmcwalkersperthread" condition="real">1.0000000000e+00</parameter>
<parameter name="maxcpusecs" condition="real">3.6000000000e+05</parameter>
<parameter name="record_configs" condition="int">0</parameter>
<parameter name="record_walkers" condition="int">200</parameter>
<parameter name="recordconfigs" condition="int">0</parameter>
<parameter name="recordwalkers" condition="int">200</parameter>
<parameter name="rewind" condition="int">0</parameter>
<parameter name="samples" condition="real">1.0240000000e+03</parameter>
<parameter name="samplesperthread" condition="real">1.0000000000e+00</parameter>
<parameter name="steps" condition="int">1</parameter>
<parameter name="stepsbetweensamples" condition="int">200</parameter>
<parameter name="store_configs" condition="int">0</parameter>
<parameter name="storeconfigs" condition="int">0</parameter>
<parameter name="sub_steps" condition="int">5</parameter>
<parameter name="substeps" condition="int">5</parameter>
<parameter name="tau" condition="au">1.5000000000e-01</parameter>
<parameter name="time_step" condition="au">1.5000000000e-01</parameter>
<parameter name="timestep" condition="au">1.5000000000e-01</parameter>
<parameter name="use_drift" condition="string">no</parameter>
<parameter name="usedrift" condition="string">no</parameter>
<parameter name="walkers" condition="int">1</parameter>
<parameter name="warmup_steps" condition="int">100</parameter>
<parameter name="warmupsteps" condition="int">100</parameter>
  DumpConfig==false Nothing (configurations, state) will be saved.
  Walker Samples are dumped every 200 steps.
</vmc>
  Set drift_modifier UNR parameter a = 1.0000000000e+00
  Initial partition of walkers 0 1 

  Using Particle by Particle moves
  Walker moves without drift
  Total Sample Size   =1024
  Walker distribution on root = 0 1 
  Using Locality Approximation
===== Memory Usage after the buffer registration =====
Available memory on node 0, free + buffers : 53272 MB
Memory footprint by rank 0 on node 0       : 571 MB
==================================================
  Anonymous Buffer size per walker : 1440 Bytes.
MEMORY increase 0 MB VMC::resetRun
====================================================
  SimpleFixedNodeBranch::finalize after a VMC block
    QMC counter        = 0
    time step          = 0.15
    reference energy   = -3.66377
    reference variance = 0.141856
====================================================
  QMC Execution time = 1.3390e+00 secs
Loop execution max-interations = 5

=========================================================
  Start QMCFixedSampleLinearOptimize
  File Root Ge.log.s001 append = no 
=========================================================
  Skip QMCDriver::putQMCInfo 
  Resetting Properties of the walkers 1 x 13

=========================================================
  Start VMC
  File Root Ge.log.s001 append = no 
=========================================================
  Using the current 1 walkers.
  Total number of walkers: 1.0240e+03
  Total weight: 1.0240e+03
  Resetting Properties of the walkers 1 x 13

<vmc function="put">
  qmc_counter=0  my_counter=0
  time step      = 1.5000e-01
  blocks         = 400
  steps          = 1
  substeps       = 5
  current        = 0
  target samples = 2.5600e+05
  walkers/mpi    = 1

  stepsbetweensamples = 1
<parameter name="blocks" condition="int">400</parameter>
<parameter name="blocks_between_recompute" condition="int">0</parameter>
<parameter name="check_properties" condition="int">100</parameter>
<parameter name="checkproperties" condition="int">100</parameter>
<parameter name="current" condition="int">0</parameter>
<parameter name="dmcwalkersperthread" condition="real">2.5000e+02</parameter>
<parameter name="maxcpusecs" condition="real">3.6000e+05</parameter>
<parameter name="record_configs" condition="int">0</parameter>
<parameter name="record_walkers" condition="int">1</parameter>
<parameter name="recordconfigs" condition="int">0</parameter>
<parameter name="recordwalkers" condition="int">1</parameter>
<parameter name="rewind" condition="int">0</parameter>
<parameter name="samples" condition="real">2.5600e+05</parameter>
<parameter name="samplesperthread" condition="real">2.5000e+02</parameter>
<parameter name="steps" condition="int">1</parameter>
<parameter name="stepsbetweensamples" condition="int">1</parameter>
<parameter name="store_configs" condition="int">0</parameter>
<parameter name="storeconfigs" condition="int">0</parameter>
<parameter name="sub_steps" condition="int">5</parameter>
<parameter name="substeps" condition="int">5</parameter>
<parameter name="tau" condition="au">1.5000e-01</parameter>
<parameter name="time_step" condition="au">1.5000e-01</parameter>
<parameter name="timestep" condition="au">1.5000e-01</parameter>
<parameter name="use_drift" condition="string">no</parameter>
<parameter name="usedrift" condition="string">no</parameter>
<parameter name="walkers" condition="int">1</parameter>
<parameter name="warmup_steps" condition="int">0</parameter>
<parameter name="warmupsteps" condition="int">0</parameter>
  DumpConfig==false Nothing (configurations, state) will be saved.
  Walker Samples are dumped every 1 steps.
</vmc>
    Restarting, cummulative properties:
      energy     = -3.6638e+00
      variance   = 0.0000e+00
      r2accepted = 1.0000e-10
      r2proposed = 1.0000e-10
  Set drift_modifier UNR parameter a = 1.0000e+00
 Using QMCCostFunction::QMCCostFunction
  Set drift_modifier UNR parameter a = 1.0000e+00
  EstimatorManagerBase::add replace LocalEnergy estimator.
<optimization-report>
<vmc stage="main" blocks="400">
  Cannot make clones again. Use existing 1 clones
  Initial partition of walkers 0 1 

  Using Particle by Particle moves
  Walker moves without drift
  Total Sample Size   =256000
  Walker distribution on root = 0 1 
  Using Locality Approximation
===== Memory Usage after the buffer registration =====
Available memory on node 0, free + buffers : 53272 MB
Memory footprint by rank 0 on node 0       : 572 MB
==================================================
  Anonymous Buffer size per walker : 1440 Bytes.
MEMORY increase 0 MB VMC::resetRun
====================================================
  SimpleFixedNodeBranch::finalize after a VMC block
    QMC counter        = 1
    time step          = 0.15
    reference energy   = -3.65817
    reference variance = 0.16724
====================================================
  Execution time = 1.5478e+00
</vmc>
<opt stage="setup">
  <log>
   Reading configurations from h5FileRoot Ge.log.s001
  QMCCostFunction is created with 1 threads.
  Using Nonlocal PP in Opt: NonLocalECP
   Number of samples loaded to each thread : 250 
  VMC Eavg = -3.5889e+00
  VMC Evar = 1.0234e+00
  Total weights = 2.5600e+05
  Execution time = 1.0475e-01
  </log>
</opt>
<opt stage="main" walkers="256000">
  <log>

*****************************************
Building overlap and Hamiltonian matrices
*****************************************

Among totally 30 optimized parameters, largest LM parameter change : 3.8887e-01 at parameter 10

******************************************************************************
Init Cost =   1.0234e+00    New Cost =   9.1028e-01  Delta Cost =  -1.1309e-01
******************************************************************************

The new set of parameters is valid. Updating the trial wave function!

*****************************************************************************
Applying the update for shift_i =   1.0000e-02     and shift_s =   2.5000e-01
*****************************************************************************
  Execution time = 1.8044e+00
  </log>
  <optVariables href="Ge.log.s001.opt.xml">
 uu_0                 7.316376e-02 1 1  ON 0
 uu_1                 1.133500e-01 1 1  ON 1
 uu_2                 2.612472e-02 1 1  ON 2
 uu_3                -1.036552e-02 1 1  ON 3
 uu_4                -2.951371e-02 1 1  ON 4
 uu_5                -4.041353e-02 1 1  ON 5
 uu_6                -4.385818e-02 1 1  ON 6
 uu_7                -3.704974e-02 1 1  ON 7
 uu_8                -2.906515e-02 1 1  ON 8
 uu_9                -1.572126e-02 1 1  ON 9
 ud_0                 3.888726e-01 1 1  ON 10
 ud_1                 2.415900e-01 1 1  ON 11
 ud_2                 8.215308e-02 1 1  ON 12
 ud_3                -2.899908e-03 1 1  ON 13
 ud_4                -6.250692e-02 1 1  ON 14
 ud_5                -9.887654e-02 1 1  ON 15
 ud_6                -1.174792e-01 1 1  ON 16
 ud_7                -1.238164e-01 1 1  ON 17
 ud_8                -1.103079e-01 1 1  ON 18
 ud_9                -8.793567e-02 1 1  ON 19
eGe_0                -1.274384e-01 1 1  ON 20
eGe_1                -9.229903e-02 1 1  ON 21
eGe_2                -1.062952e-01 1 1  ON 22
eGe_3                -1.287644e-02 1 1  ON 23
eGe_4                 4.407322e-02 1 1  ON 24
eGe_5                 8.850142e-02 1 1  ON 25
eGe_6                 9.428760e-02 1 1  ON 26
eGe_7                 7.651868e-02 1 1  ON 27
eGe_8                 2.947417e-02 1 1  ON 28
eGe_9                 2.954048e-03 1 1  ON 29
  </optVariables>
   Restore the number of walkers to 1, removing 0 walkers.
</opt>
</optimization-report>
  QMC Execution time = 1.813 secs
  Reusing QMCFixedSampleLinearOptimize
 Using QMCCostFunction::QMCCostFunction

=========================================================
  Start QMCFixedSampleLinearOptimize
  File Root Ge.log.s002 append = no 
=========================================================
  Skip QMCDriver::putQMCInfo 
  Resetting Properties of the walkers 1 x 13

=========================================================
  Start VMC
  File Root Ge.log.s002 append = no 
=========================================================
Using existing walkers 
  Resetting Properties of the walkers 1 x 13

<vmc function="put">
  qmc_counter=1  my_counter=1
  time step      = 1.5000e-01
  blocks         = 400
  steps          = 1
  substeps       = 5
  current        = 0
  target samples = 2.5600e+05
  walkers/mpi    = 1

  stepsbetweensamples = 1
<parameter name="blocks" condition="int">400</parameter>
<parameter name="blocks_between_recompute" condition="int">0</parameter>
<parameter name="check_properties" condition="int">100</parameter>
<parameter name="checkproperties" condition="int">100</parameter>
<parameter name="current" condition="int">0</parameter>
<parameter name="dmcwalkersperthread" condition="real">2.5000e+02</parameter>
<parameter name="maxcpusecs" condition="real">3.6000e+05</parameter>
<parameter name="record_configs" condition="int">0</parameter>
<parameter name="record_walkers" condition="int">1</parameter>
<parameter name="recordconfigs" condition="int">0</parameter>
<parameter name="recordwalkers" condition="int">1</parameter>
<parameter name="rewind" condition="int">0</parameter>
<parameter name="samples" condition="real">2.5600e+05</parameter>
<parameter name="samplesperthread" condition="real">2.5000e+02</parameter>
<parameter name="steps" condition="int">1</parameter>
<parameter name="stepsbetweensamples" condition="int">1</parameter>
<parameter name="store_configs" condition="int">0</parameter>
<parameter name="storeconfigs" condition="int">0</parameter>
<parameter name="sub_steps" condition="int">5</parameter>
<parameter name="substeps" condition="int">5</parameter>
<parameter name="tau" condition="au">1.5000e-01</parameter>
<parameter name="time_step" condition="au">1.5000e-01</parameter>
<parameter name="timestep" condition="au">1.5000e-01</parameter>
<parameter name="use_drift" condition="string">no</parameter>
<parameter name="usedrift" condition="string">no</parameter>
<parameter name="walkers" condition="int">1</parameter>
<parameter name="warmup_steps" condition="int">0</parameter>
<parameter name="warmupsteps" condition="int">0</parameter>
  DumpConfig==false Nothing (configurations, state) will be saved.
  Walker Samples are dumped every 1 steps.
</vmc>
  Set drift_modifier UNR parameter a = 1.0000e+00
  EstimatorManagerBase::add replace LocalEnergy estimator.
  Set drift_modifier UNR parameter a = 1.0000e+00
  EstimatorManagerBase::add replace LocalEnergy estimator.
<optimization-report>
<vmc stage="main" blocks="400">
  Cannot make clones again. Use existing 1 clones
  Initial partition of walkers 0 1 
  Using Particle by Particle moves
  Walker moves without drift
  Total Sample Size   =256000
  Walker distribution on root = 0 1 
  Using Locality Approximation
===== Memory Usage after the buffer registration =====
Available memory on node 0, free + buffers : 53257 MB
Memory footprint by rank 0 on node 0       : 574 MB
==================================================
====================================================
  SimpleFixedNodeBranch::finalize after a VMC block
    QMC counter        = 2
    time step          = 0.15
    reference energy   = -3.71452
    reference variance = 0.0530867
====================================================
  Execution time = 1.8482e+00
</vmc>
<opt stage="setup">
  <log>
   Reading configurations from h5FileRoot Ge.log.s002
  QMCCostFunction is created with 1 threads.
  Using Nonlocal PP in Opt: NonLocalECP
   Number of samples loaded to each thread : 250 
  VMC Eavg = -3.6345e+00
  VMC Evar = 9.5570e-01
  Total weights = 2.5600e+05
  Execution time = 9.0644e-02
  </log>
</opt>
<opt stage="main" walkers="256000">
  <log>

*****************************************
Building overlap and Hamiltonian matrices
*****************************************

Among totally 30 optimized parameters, largest LM parameter change : 2.7477e-01 at parameter 10

******************************************************************************
Init Cost =   9.5570e-01    New Cost =   9.3580e-01  Delta Cost =  -1.9898e-02
******************************************************************************

The new set of parameters is valid. Updating the trial wave function!

*****************************************************************************
Applying the update for shift_i =   1.0000e-02     and shift_s =   6.2500e-02
*****************************************************************************
  Execution time = 2.1080e+00
  </log>
  <optVariables href="Ge.log.s002.opt.xml">
 uu_0                 1.344545e-01 1 1  ON 0
 uu_1                 1.684386e-01 1 1  ON 1
 uu_2                 3.275979e-02 1 1  ON 2
 uu_3                -2.701814e-02 1 1  ON 3
 uu_4                -6.809529e-02 1 1  ON 4
 uu_5                -8.695222e-02 1 1  ON 5
 uu_6                -8.875577e-02 1 1  ON 6
 uu_7                -7.297748e-02 1 1  ON 7
 uu_8                -4.706937e-02 1 1  ON 8
 uu_9                -1.469168e-02 1 1  ON 9
 ud_0                 6.636470e-01 1 1  ON 10
 ud_1                 4.393822e-01 1 1  ON 11
 ud_2                 2.019352e-01 1 1  ON 12
 ud_3                 4.494484e-02 1 1  ON 13
 ud_4                -7.587285e-02 1 1  ON 14
 ud_5                -1.631180e-01 1 1  ON 15
 ud_6                -2.183117e-01 1 1  ON 16
 ud_7                -2.415163e-01 1 1  ON 17
 ud_8                -2.251519e-01 1 1  ON 18
 ud_9                -1.810340e-01 1 1  ON 19
eGe_0                -2.583051e-01 1 1  ON 20
eGe_1                -2.128761e-01 1 1  ON 21
eGe_2                -1.990521e-01 1 1  ON 22
eGe_3                -4.503108e-02 1 1  ON 23
eGe_4                 7.411225e-02 1 1  ON 24
eGe_5                 1.641853e-01 1 1  ON 25
eGe_6                 1.899315e-01 1 1  ON 26
eGe_7                 1.736278e-01 1 1  ON 27
eGe_8                 8.239634e-02 1 1  ON 28
eGe_9                 1.744242e-02 1 1  ON 29
  </optVariables>
   Restore the number of walkers to 1, removing 0 walkers.
</opt>
</optimization-report>
  QMC Execution time = 2.116 secs
  Reusing QMCFixedSampleLinearOptimize
 Using QMCCostFunction::QMCCostFunction

=========================================================
  Start QMCFixedSampleLinearOptimize
  File Root Ge.log.s003 append = no 
=========================================================
  Skip QMCDriver::putQMCInfo 
  Resetting Properties of the walkers 1 x 13

=========================================================
  Start VMC
  File Root Ge.log.s003 append = no 
=========================================================
Using existing walkers 
  Resetting Properties of the walkers 1 x 13

<vmc function="put">
  qmc_counter=2  my_counter=2
  time step      = 1.5000e-01
  blocks         = 400
  steps          = 1
  substeps       = 5
  current        = 0
  target samples = 2.5600e+05
  walkers/mpi    = 1

  stepsbetweensamples = 1
<parameter name="blocks" condition="int">400</parameter>
<parameter name="blocks_between_recompute" condition="int">0</parameter>
<parameter name="check_properties" condition="int">100</parameter>
<parameter name="checkproperties" condition="int">100</parameter>
<parameter name="current" condition="int">0</parameter>
<parameter name="dmcwalkersperthread" condition="real">2.5000e+02</parameter>
<parameter name="maxcpusecs" condition="real">3.6000e+05</parameter>
<parameter name="record_configs" condition="int">0</parameter>
<parameter name="record_walkers" condition="int">1</parameter>
<parameter name="recordconfigs" condition="int">0</parameter>
<parameter name="recordwalkers" condition="int">1</parameter>
<parameter name="rewind" condition="int">0</parameter>
<parameter name="samples" condition="real">2.5600e+05</parameter>
<parameter name="samplesperthread" condition="real">2.5000e+02</parameter>
<parameter name="steps" condition="int">1</parameter>
<parameter name="stepsbetweensamples" condition="int">1</parameter>
<parameter name="store_configs" condition="int">0</parameter>
<parameter name="storeconfigs" condition="int">0</parameter>
<parameter name="sub_steps" condition="int">5</parameter>
<parameter name="substeps" condition="int">5</parameter>
<parameter name="tau" condition="au">1.5000e-01</parameter>
<parameter name="time_step" condition="au">1.5000e-01</parameter>
<parameter name="timestep" condition="au">1.5000e-01</parameter>
<parameter name="use_drift" condition="string">no</parameter>
<parameter name="usedrift" condition="string">no</parameter>
<parameter name="walkers" condition="int">1</parameter>
<parameter name="warmup_steps" condition="int">0</parameter>
<parameter name="warmupsteps" condition="int">0</parameter>
  DumpConfig==false Nothing (configurations, state) will be saved.
  Walker Samples are dumped every 1 steps.
</vmc>
  Set drift_modifier UNR parameter a = 1.0000e+00
  EstimatorManagerBase::add replace LocalEnergy estimator.
  Set drift_modifier UNR parameter a = 1.0000e+00
  EstimatorManagerBase::add replace LocalEnergy estimator.
<optimization-report>
<vmc stage="main" blocks="400">
  Cannot make clones again. Use existing 1 clones
  Initial partition of walkers 0 1 
  Using Particle by Particle moves
  Walker moves without drift
  Total Sample Size   =256000
  Walker distribution on root = 0 1 
  Using Locality Approximation
===== Memory Usage after the buffer registration =====
Available memory on node 0, free + buffers : 53251 MB
Memory footprint by rank 0 on node 0       : 576 MB
==================================================
====================================================
  SimpleFixedNodeBranch::finalize after a VMC block
    QMC counter        = 3
    time step          = 0.15
    reference energy   = -3.72859
    reference variance = 0.0438132
====================================================
  Execution time = 2.4067e+00
</vmc>
<opt stage="setup">
  <log>
   Reading configurations from h5FileRoot Ge.log.s003
  QMCCostFunction is created with 1 threads.
  Using Nonlocal PP in Opt: NonLocalECP
   Number of samples loaded to each thread : 250 
  VMC Eavg = -3.6412e+00
  VMC Evar = 9.2390e-01
  Total weights = 2.5600e+05
  Execution time = 1.5948e-01
  </log>
</opt>
<opt stage="main" walkers="256000">
  <log>

*****************************************
Building overlap and Hamiltonian matrices
*****************************************

Among totally 30 optimized parameters, largest LM parameter change : 1.5409e-01 at parameter 10

******************************************************************************
Init Cost =   9.2390e-01    New Cost =   9.2153e-01  Delta Cost =  -2.3717e-03
******************************************************************************

The new set of parameters is valid. Updating the trial wave function!

*****************************************************************************
Applying the update for shift_i =   1.0000e-02     and shift_s =   1.5625e-02
*****************************************************************************
  Execution time = 2.7926e+00
  </log>
  <optVariables href="Ge.log.s003.opt.xml">
 uu_0                 1.811711e-01 1 1  ON 0
 uu_1                 1.737208e-01 1 1  ON 1
 uu_2                 3.225845e-02 1 1  ON 2
 uu_3                -2.993234e-02 1 1  ON 3
 uu_4                -7.326914e-02 1 1  ON 4
 uu_5                -9.637470e-02 1 1  ON 5
 uu_6                -1.046655e-01 1 1  ON 6
 uu_7                -9.598481e-02 1 1  ON 7
 uu_8                -7.067261e-02 1 1  ON 8
 uu_9                -2.195943e-02 1 1  ON 9
 ud_0                 8.177358e-01 1 1  ON 10
 ud_1                 5.481090e-01 1 1  ON 11
 ud_2                 2.877312e-01 1 1  ON 12
 ud_3                 1.040391e-01 1 1  ON 13
 ud_4                -4.739234e-02 1 1  ON 14
 ud_5                -1.626097e-01 1 1  ON 15
 ud_6                -2.466174e-01 1 1  ON 16
 ud_7                -3.006581e-01 1 1  ON 17
 ud_8                -3.027249e-01 1 1  ON 18
 ud_9                -2.667237e-01 1 1  ON 19
eGe_0                -3.160821e-01 1 1  ON 20
eGe_1                -2.853857e-01 1 1  ON 21
eGe_2                -2.586545e-01 1 1  ON 22
eGe_3                -7.772532e-02 1 1  ON 23
eGe_4                 7.073695e-02 1 1  ON 24
eGe_5                 1.973230e-01 1 1  ON 25
eGe_6                 2.553028e-01 1 1  ON 26
eGe_7                 2.432883e-01 1 1  ON 27
eGe_8                 1.385710e-01 1 1  ON 28
eGe_9                 2.580868e-02 1 1  ON 29
  </optVariables>
   Restore the number of walkers to 1, removing 0 walkers.
</opt>
</optimization-report>
  QMC Execution time = 2.801 secs
  Reusing QMCFixedSampleLinearOptimize
 Using QMCCostFunction::QMCCostFunction

=========================================================
  Start QMCFixedSampleLinearOptimize
  File Root Ge.log.s004 append = no 
=========================================================
  Skip QMCDriver::putQMCInfo 
  Resetting Properties of the walkers 1 x 13

=========================================================
  Start VMC
  File Root Ge.log.s004 append = no 
=========================================================
Using existing walkers 
  Resetting Properties of the walkers 1 x 13

<vmc function="put">
  qmc_counter=3  my_counter=3
  time step      = 1.5000e-01
  blocks         = 400
  steps          = 1
  substeps       = 5
  current        = 0
  target samples = 2.5600e+05
  walkers/mpi    = 1

  stepsbetweensamples = 1
<parameter name="blocks" condition="int">400</parameter>
<parameter name="blocks_between_recompute" condition="int">0</parameter>
<parameter name="check_properties" condition="int">100</parameter>
<parameter name="checkproperties" condition="int">100</parameter>
<parameter name="current" condition="int">0</parameter>
<parameter name="dmcwalkersperthread" condition="real">2.5000e+02</parameter>
<parameter name="maxcpusecs" condition="real">3.6000e+05</parameter>
<parameter name="record_configs" condition="int">0</parameter>
<parameter name="record_walkers" condition="int">1</parameter>
<parameter name="recordconfigs" condition="int">0</parameter>
<parameter name="recordwalkers" condition="int">1</parameter>
<parameter name="rewind" condition="int">0</parameter>
<parameter name="samples" condition="real">2.5600e+05</parameter>
<parameter name="samplesperthread" condition="real">2.5000e+02</parameter>
<parameter name="steps" condition="int">1</parameter>
<parameter name="stepsbetweensamples" condition="int">1</parameter>
<parameter name="store_configs" condition="int">0</parameter>
<parameter name="storeconfigs" condition="int">0</parameter>
<parameter name="sub_steps" condition="int">5</parameter>
<parameter name="substeps" condition="int">5</parameter>
<parameter name="tau" condition="au">1.5000e-01</parameter>
<parameter name="time_step" condition="au">1.5000e-01</parameter>
<parameter name="timestep" condition="au">1.5000e-01</parameter>
<parameter name="use_drift" condition="string">no</parameter>
<parameter name="usedrift" condition="string">no</parameter>
<parameter name="walkers" condition="int">1</parameter>
<parameter name="warmup_steps" condition="int">0</parameter>
<parameter name="warmupsteps" condition="int">0</parameter>
  DumpConfig==false Nothing (configurations, state) will be saved.
  Walker Samples are dumped every 1 steps.
</vmc>
  Set drift_modifier UNR parameter a = 1.0000e+00
  EstimatorManagerBase::add replace LocalEnergy estimator.
  Set drift_modifier UNR parameter a = 1.0000e+00
  EstimatorManagerBase::add replace LocalEnergy estimator.
<optimization-report>
<vmc stage="main" blocks="400">
  Cannot make clones again. Use existing 1 clones
  Initial partition of walkers 0 1 
  Using Particle by Particle moves
  Walker moves without drift
  Total Sample Size   =256000
  Walker distribution on root = 0 1 
  Using Locality Approximation
===== Memory Usage after the buffer registration =====
Available memory on node 0, free + buffers : 53249 MB
Memory footprint by rank 0 on node 0       : 579 MB
==================================================
====================================================
  SimpleFixedNodeBranch::finalize after a VMC block
    QMC counter        = 4
    time step          = 0.15
    reference energy   = -3.72614
    reference variance = 0.0405276
====================================================
  Execution time = 2.4282e+00
</vmc>
<opt stage="setup">
  <log>
   Reading configurations from h5FileRoot Ge.log.s004
  QMCCostFunction is created with 1 threads.
  Using Nonlocal PP in Opt: NonLocalECP
   Number of samples loaded to each thread : 250 
  VMC Eavg = -3.6341e+00
  VMC Evar = 9.4258e-01
  Total weights = 2.5600e+05
  Execution time = 2.1737e-01
  </log>
</opt>
<opt stage="main" walkers="256000">
  <log>

*****************************************
Building overlap and Hamiltonian matrices
*****************************************

Among totally 30 optimized parameters, largest LM parameter change : 8.7229e-02 at parameter 10

******************************************************************************
Init Cost =   9.4258e-01    New Cost =   9.4224e-01  Delta Cost =  -3.3799e-04
******************************************************************************

The new set of parameters is valid. Updating the trial wave function!

*****************************************************************************
Applying the update for shift_i =   1.0000e-02     and shift_s =   3.9062e-03
*****************************************************************************
  Execution time = 2.9309e+00
  </log>
  <optVariables href="Ge.log.s004.opt.xml">
 uu_0                 2.206040e-01 1 1  ON 0
 uu_1                 1.761158e-01 1 1  ON 1
 uu_2                 3.349424e-02 1 1  ON 2
 uu_3                -3.222489e-02 1 1  ON 3
 uu_4                -7.699914e-02 1 1  ON 4
 uu_5                -1.020333e-01 1 1  ON 5
 uu_6                -1.126471e-01 1 1  ON 6
 uu_7                -1.086948e-01 1 1  ON 7
 uu_8                -8.379265e-02 1 1  ON 8
 uu_9                -4.577613e-02 1 1  ON 9
 ud_0                 9.049648e-01 1 1  ON 10
 ud_1                 6.079015e-01 1 1  ON 11
 ud_2                 3.401121e-01 1 1  ON 12
 ud_3                 1.412880e-01 1 1  ON 13
 ud_4                -1.811144e-02 1 1  ON 14
 ud_5                -1.461909e-01 1 1  ON 15
 ud_6                -2.433875e-01 1 1  ON 16
 ud_7                -3.109233e-01 1 1  ON 17
 ud_8                -3.258824e-01 1 1  ON 18
 ud_9                -3.151521e-01 1 1  ON 19
eGe_0                -3.215062e-01 1 1  ON 20
eGe_1                -3.273180e-01 1 1  ON 21
eGe_2                -3.010304e-01 1 1  ON 22
eGe_3                -1.092974e-01 1 1  ON 23
eGe_4                 5.357454e-02 1 1  ON 24
eGe_5                 1.974625e-01 1 1  ON 25
eGe_6                 2.749958e-01 1 1  ON 26
eGe_7                 2.890838e-01 1 1  ON 27
eGe_8                 1.898097e-01 1 1  ON 28
eGe_9                 4.243464e-02 1 1  ON 29
  </optVariables>
   Restore the number of walkers to 1, removing 0 walkers.
</opt>
</optimization-report>
  QMC Execution time = 2.939 secs
  Reusing QMCFixedSampleLinearOptimize
 Using QMCCostFunction::QMCCostFunction

=========================================================
  Start QMCFixedSampleLinearOptimize
  File Root Ge.log.s005 append = no 
=========================================================
  Skip QMCDriver::putQMCInfo 
  Resetting Properties of the walkers 1 x 13

=========================================================
  Start VMC
  File Root Ge.log.s005 append = no 
=========================================================
Using existing walkers 
  Resetting Properties of the walkers 1 x 13

<vmc function="put">
  qmc_counter=4  my_counter=4
  time step      = 1.5000e-01
  blocks         = 400
  steps          = 1
  substeps       = 5
  current        = 0
  target samples = 2.5600e+05
  walkers/mpi    = 1

  stepsbetweensamples = 1
<parameter name="blocks" condition="int">400</parameter>
<parameter name="blocks_between_recompute" condition="int">0</parameter>
<parameter name="check_properties" condition="int">100</parameter>
<parameter name="checkproperties" condition="int">100</parameter>
<parameter name="current" condition="int">0</parameter>
<parameter name="dmcwalkersperthread" condition="real">2.5000e+02</parameter>
<parameter name="maxcpusecs" condition="real">3.6000e+05</parameter>
<parameter name="record_configs" condition="int">0</parameter>
<parameter name="record_walkers" condition="int">1</parameter>
<parameter name="recordconfigs" condition="int">0</parameter>
<parameter name="recordwalkers" condition="int">1</parameter>
<parameter name="rewind" condition="int">0</parameter>
<parameter name="samples" condition="real">2.5600e+05</parameter>
<parameter name="samplesperthread" condition="real">2.5000e+02</parameter>
<parameter name="steps" condition="int">1</parameter>
<parameter name="stepsbetweensamples" condition="int">1</parameter>
<parameter name="store_configs" condition="int">0</parameter>
<parameter name="storeconfigs" condition="int">0</parameter>
<parameter name="sub_steps" condition="int">5</parameter>
<parameter name="substeps" condition="int">5</parameter>
<parameter name="tau" condition="au">1.5000e-01</parameter>
<parameter name="time_step" condition="au">1.5000e-01</parameter>
<parameter name="timestep" condition="au">1.5000e-01</parameter>
<parameter name="use_drift" condition="string">no</parameter>
<parameter name="usedrift" condition="string">no</parameter>
<parameter name="walkers" condition="int">1</parameter>
<parameter name="warmup_steps" condition="int">0</parameter>
<parameter name="warmupsteps" condition="int">0</parameter>
  DumpConfig==false Nothing (configurations, state) will be saved.
  Walker Samples are dumped every 1 steps.
</vmc>
  Set drift_modifier UNR parameter a = 1.0000e+00
  EstimatorManagerBase::add replace LocalEnergy estimator.
  Set drift_modifier UNR parameter a = 1.0000e+00
  EstimatorManagerBase::add replace LocalEnergy estimator.
<optimization-report>
<vmc stage="main" blocks="400">
  Cannot make clones again. Use existing 1 clones
  Initial partition of walkers 0 1 
  Using Particle by Particle moves
  Walker moves without drift
  Total Sample Size   =256000
  Walker distribution on root = 0 1 
  Using Locality Approximation
===== Memory Usage after the buffer registration =====
Available memory on node 0, free + buffers : 53245 MB
Memory footprint by rank 0 on node 0       : 582 MB
==================================================
====================================================
  SimpleFixedNodeBranch::finalize after a VMC block
    QMC counter        = 5
    time step          = 0.15
    reference energy   = -3.71477
    reference variance = 0.0455377
====================================================
  Execution time = 2.4937e+00
</vmc>
<opt stage="setup">
  <log>
   Reading configurations from h5FileRoot Ge.log.s005
  QMCCostFunction is created with 1 threads.
  Using Nonlocal PP in Opt: NonLocalECP
   Number of samples loaded to each thread : 250 
  VMC Eavg = -3.6321e+00
  VMC Evar = 9.4814e-01
  Total weights = 2.5600e+05
  Execution time = 2.6322e-01
  </log>
</opt>
<opt stage="main" walkers="256000">
  <log>

*****************************************
Building overlap and Hamiltonian matrices
*****************************************

Among totally 30 optimized parameters, largest LM parameter change : 5.1925e-02 at parameter 10

******************************************************************************
Init Cost =   9.4814e-01    New Cost =   9.4567e-01  Delta Cost =  -2.4641e-03
******************************************************************************

The new set of parameters is valid. Updating the trial wave function!

*****************************************************************************
Applying the update for shift_i =   1.0000e-02     and shift_s =   3.9062e-03
*****************************************************************************
  Execution time = 3.0660e+00
  </log>
  <optVariables href="Ge.log.s005.opt.xml">
 uu_0                 2.437792e-01 1 1  ON 0
 uu_1                 1.632090e-01 1 1  ON 1
 uu_2                 2.555869e-02 1 1  ON 2
 uu_3                -3.416622e-02 1 1  ON 3
 uu_4                -7.559117e-02 1 1  ON 4
 uu_5                -1.069099e-01 1 1  ON 5
 uu_6                -1.176997e-01 1 1  ON 6
 uu_7                -1.151968e-01 1 1  ON 7
 uu_8                -9.282339e-02 1 1  ON 8
 uu_9                -5.925678e-02 1 1  ON 9
 ud_0                 9.568898e-01 1 1  ON 10
 ud_1                 6.466802e-01 1 1  ON 11
 ud_2                 3.789443e-01 1 1  ON 12
 ud_3                 1.780698e-01 1 1  ON 13
 ud_4                 1.369157e-02 1 1  ON 14
 ud_5                -1.197078e-01 1 1  ON 15
 ud_6                -2.225101e-01 1 1  ON 16
 ud_7                -3.002800e-01 1 1  ON 17
 ud_8                -3.278533e-01 1 1  ON 18
 ud_9                -3.340636e-01 1 1  ON 19
eGe_0                -3.238968e-01 1 1  ON 20
eGe_1                -3.592576e-01 1 1  ON 21
eGe_2                -3.303027e-01 1 1  ON 22
eGe_3                -1.361283e-01 1 1  ON 23
eGe_4                 4.131161e-02 1 1  ON 24
eGe_5                 1.962962e-01 1 1  ON 25
eGe_6                 2.807419e-01 1 1  ON 26
eGe_7                 3.087994e-01 1 1  ON 27
eGe_8                 2.361514e-01 1 1  ON 28
eGe_9                 7.498749e-02 1 1  ON 29
  </optVariables>
   Restore the number of walkers to 1, removing 0 walkers.
</opt>
</optimization-report>
  QMC Execution time = 3.074 secs
Loop execution max-interations = 5
  Reusing QMCFixedSampleLinearOptimize
 Using QMCCostFunction::QMCCostFunction

=========================================================
  Start QMCFixedSampleLinearOptimize
  File Root Ge.log.s006 append = no 
=========================================================
  Skip QMCDriver::putQMCInfo 
  Resetting Properties of the walkers 1 x 13

=========================================================
  Start VMC
  File Root Ge.log.s006 append = no 
=========================================================
  Using the current 1 walkers.
  Total number of walkers: 1.0240e+03
  Total weight: 1.0240e+03
  Resetting Properties of the walkers 1 x 13

<vmc function="put">
  qmc_counter=0  my_counter=5
  time step      = 1.5000e-01
  blocks         = 400
  steps          = 1
  substeps       = 5
  current        = 0
  target samples = 2.5600e+05
  walkers/mpi    = 1

  stepsbetweensamples = 1
<parameter name="blocks" condition="int">400</parameter>
<parameter name="blocks_between_recompute" condition="int">0</parameter>
<parameter name="check_properties" condition="int">100</parameter>
<parameter name="checkproperties" condition="int">100</parameter>
<parameter name="current" condition="int">0</parameter>
<parameter name="dmcwalkersperthread" condition="real">2.5000e+02</parameter>
<parameter name="maxcpusecs" condition="real">3.6000e+05</parameter>
<parameter name="record_configs" condition="int">0</parameter>
<parameter name="record_walkers" condition="int">1</parameter>
<parameter name="recordconfigs" condition="int">0</parameter>
<parameter name="recordwalkers" condition="int">1</parameter>
<parameter name="rewind" condition="int">0</parameter>
<parameter name="samples" condition="real">2.5600e+05</parameter>
<parameter name="samplesperthread" condition="real">2.5000e+02</parameter>
<parameter name="steps" condition="int">1</parameter>
<parameter name="stepsbetweensamples" condition="int">1</parameter>
<parameter name="store_configs" condition="int">0</parameter>
<parameter name="storeconfigs" condition="int">0</parameter>
<parameter name="sub_steps" condition="int">5</parameter>
<parameter name="substeps" condition="int">5</parameter>
<parameter name="tau" condition="au">1.5000e-01</parameter>
<parameter name="time_step" condition="au">1.5000e-01</parameter>
<parameter name="timestep" condition="au">1.5000e-01</parameter>
<parameter name="use_drift" condition="string">no</parameter>
<parameter name="usedrift" condition="string">no</parameter>
<parameter name="walkers" condition="int">1</parameter>
<parameter name="warmup_steps" condition="int">0</parameter>
<parameter name="warmupsteps" condition="int">0</parameter>
  DumpConfig==false Nothing (configurations, state) will be saved.
  Walker Samples are dumped every 1 steps.
</vmc>
  Set drift_modifier UNR parameter a = 1.0000e+00
  EstimatorManagerBase::add replace LocalEnergy estimator.
  Set drift_modifier UNR parameter a = 1.0000e+00
  EstimatorManagerBase::add replace LocalEnergy estimator.
<optimization-report>
<vmc stage="main" blocks="400">
  Cannot make clones again. Use existing 1 clones
  Initial partition of walkers 0 1 
  Using Particle by Particle moves
  Walker moves without drift
  Total Sample Size   =256000
  Walker distribution on root = 0 1 
  Using Locality Approximation
===== Memory Usage after the buffer registration =====
Available memory on node 0, free + buffers : 53242 MB
Memory footprint by rank 0 on node 0       : 584 MB
==================================================
====================================================
  SimpleFixedNodeBranch::finalize after a VMC block
    QMC counter        = 6
    time step          = 0.15
    reference energy   = -3.7262
    reference variance = 0.0527284
====================================================
  Execution time = 2.5073e+00
</vmc>
<opt stage="setup">
  <log>
   Reading configurations from h5FileRoot Ge.log.s006
  QMCCostFunction is created with 1 threads.
  Using Nonlocal PP in Opt: NonLocalECP
   Number of samples loaded to each thread : 250 
  VMC Eavg = -3.6310e+00
  VMC Evar = 8.8153e-01
  Total weights = 2.5600e+05
  Execution time = 2.9787e-01
  </log>
</opt>
<opt stage="main" walkers="256000">
  <log>

*****************************************
Building overlap and Hamiltonian matrices
*****************************************

Among totally 30 optimized parameters, largest LM parameter change : 3.9992e-02 at parameter 10

******************************************************************************
Init Cost =   8.8153e-01    New Cost =   8.8112e-01  Delta Cost =  -4.1500e-04
******************************************************************************

The new set of parameters is valid. Updating the trial wave function!

*****************************************************************************
Applying the update for shift_i =   1.0000e-02     and shift_s =   3.9062e-03
*****************************************************************************
  Execution time = 3.1325e+00
  </log>
  <optVariables href="Ge.log.s006.opt.xml">
 uu_0                 2.676913e-01 1 1  ON 0
 uu_1                 1.688656e-01 1 1  ON 1
 uu_2                 3.408938e-02 1 1  ON 2
 uu_3                -3.446769e-02 1 1  ON 3
 uu_4                -7.936356e-02 1 1  ON 4
 uu_5                -1.070224e-01 1 1  ON 5
 uu_6                -1.210584e-01 1 1  ON 6
 uu_7                -1.194704e-01 1 1  ON 7
 uu_8                -1.020686e-01 1 1  ON 8
 uu_9                -6.850175e-02 1 1  ON 9
 ud_0                 9.968814e-01 1 1  ON 10
 ud_1                 6.660132e-01 1 1  ON 11
 ud_2                 4.071358e-01 1 1  ON 12
 ud_3                 2.047759e-01 1 1  ON 13
 ud_4                 3.704306e-02 1 1  ON 14
 ud_5                -9.818967e-02 1 1  ON 15
 ud_6                -2.036145e-01 1 1  ON 16
 ud_7                -2.844762e-01 1 1  ON 17
 ud_8                -3.174282e-01 1 1  ON 18
 ud_9                -3.289377e-01 1 1  ON 19
eGe_0                -3.524301e-01 1 1  ON 20
eGe_1                -3.812003e-01 1 1  ON 21
eGe_2                -3.474473e-01 1 1  ON 22
eGe_3                -1.509472e-01 1 1  ON 23
eGe_4                 2.577209e-02 1 1  ON 24
eGe_5                 1.891034e-01 1 1  ON 25
eGe_6                 2.899342e-01 1 1  ON 26
eGe_7                 3.400116e-01 1 1  ON 27
eGe_8                 2.750811e-01 1 1  ON 28
eGe_9                 1.000306e-01 1 1  ON 29
  </optVariables>
   Restore the number of walkers to 1, removing 0 walkers.
</opt>
</optimization-report>
  QMC Execution time = 3.141 secs
  Reusing QMCFixedSampleLinearOptimize
 Using QMCCostFunction::QMCCostFunction

=========================================================
  Start QMCFixedSampleLinearOptimize
  File Root Ge.log.s007 append = no 
=========================================================
  Skip QMCDriver::putQMCInfo 
  Resetting Properties of the walkers 1 x 13

=========================================================
  Start VMC
  File Root Ge.log.s007 append = no 
=========================================================
Using existing walkers 
  Resetting Properties of the walkers 1 x 13

<vmc function="put">
  qmc_counter=1  my_counter=6
  time step      = 1.5000e-01
  blocks         = 400
  steps          = 1
  substeps       = 5
  current        = 0
  target samples = 2.5600e+05
  walkers/mpi    = 1

  stepsbetweensamples = 1
<parameter name="blocks" condition="int">400</parameter>
<parameter name="blocks_between_recompute" condition="int">0</parameter>
<parameter name="check_properties" condition="int">100</parameter>
<parameter name="checkproperties" condition="int">100</parameter>
<parameter name="current" condition="int">0</parameter>
<parameter name="dmcwalkersperthread" condition="real">2.5000e+02</parameter>
<parameter name="maxcpusecs" condition="real">3.6000e+05</parameter>
<parameter name="record_configs" condition="int">0</parameter>
<parameter name="record_walkers" condition="int">1</parameter>
<parameter name="recordconfigs" condition="int">0</parameter>
<parameter name="recordwalkers" condition="int">1</parameter>
<parameter name="rewind" condition="int">0</parameter>
<parameter name="samples" condition="real">2.5600e+05</parameter>
<parameter name="samplesperthread" condition="real">2.5000e+02</parameter>
<parameter name="steps" condition="int">1</parameter>
<parameter name="stepsbetweensamples" condition="int">1</parameter>
<parameter name="store_configs" condition="int">0</parameter>
<parameter name="storeconfigs" condition="int">0</parameter>
<parameter name="sub_steps" condition="int">5</parameter>
<parameter name="substeps" condition="int">5</parameter>
<parameter name="tau" condition="au">1.5000e-01</parameter>
<parameter name="time_step" condition="au">1.5000e-01</parameter>
<parameter name="timestep" condition="au">1.5000e-01</parameter>
<parameter name="use_drift" condition="string">no</parameter>
<parameter name="usedrift" condition="string">no</parameter>
<parameter name="walkers" condition="int">1</parameter>
<parameter name="warmup_steps" condition="int">0</parameter>
<parameter name="warmupsteps" condition="int">0</parameter>
  DumpConfig==false Nothing (configurations, state) will be saved.
  Walker Samples are dumped every 1 steps.
</vmc>
  Set drift_modifier UNR parameter a = 1.0000e+00
  EstimatorManagerBase::add replace LocalEnergy estimator.
  Set drift_modifier UNR parameter a = 1.0000e+00
  EstimatorManagerBase::add replace LocalEnergy estimator.
<optimization-report>
<vmc stage="main" blocks="400">
  Cannot make clones again. Use existing 1 clones
  Initial partition of walkers 0 1 
  Using Particle by Particle moves
  Walker moves without drift
  Total Sample Size   =256000
  Walker distribution on root = 0 1 
  Using Locality Approximation
===== Memory Usage after the buffer registration =====
Available memory on node 0, free + buffers : 53239 MB
Memory footprint by rank 0 on node 0       : 587 MB
==================================================
====================================================
  SimpleFixedNodeBranch::finalize after a VMC block
    QMC counter        = 7
    time step          = 0.15
    reference energy   = -3.72883
    reference variance = 0.0572857
====================================================
  Execution time = 2.5514e+00
</vmc>
<opt stage="setup">
  <log>
   Reading configurations from h5FileRoot Ge.log.s007
  QMCCostFunction is created with 1 threads.
  Using Nonlocal PP in Opt: NonLocalECP
   Number of samples loaded to each thread : 250 
  VMC Eavg = -3.6302e+00
  VMC Evar = 8.0697e-01
  Total weights = 2.5600e+05
  Execution time = 3.0977e-01
  </log>
</opt>
<opt stage="main" walkers="256000">
  <log>

*****************************************
Building overlap and Hamiltonian matrices
*****************************************

Among totally 30 optimized parameters, largest LM parameter change : 3.7532e-02 at parameter 10

******************************************************************************
Init Cost =   8.0697e-01    New Cost =   8.0710e-01  Delta Cost =   1.2743e-04
******************************************************************************

The new set of parameters is valid. Updating the trial wave function!

*****************************************************************************
Applying the update for shift_i =   1.0000e-02     and shift_s =   3.9062e-03
*****************************************************************************
  Execution time = 3.1955e+00
  </log>
  <optVariables href="Ge.log.s007.opt.xml">
 uu_0                 2.838767e-01 1 1  ON 0
 uu_1                 1.663362e-01 1 1  ON 1
 uu_2                 3.438436e-02 1 1  ON 2
 uu_3                -3.370883e-02 1 1  ON 3
 uu_4                -8.093604e-02 1 1  ON 4
 uu_5                -1.143114e-01 1 1  ON 5
 uu_6                -1.310537e-01 1 1  ON 6
 uu_7                -1.279560e-01 1 1  ON 7
 uu_8                -1.033041e-01 1 1  ON 8
 uu_9                -6.030181e-02 1 1  ON 9
 ud_0                 1.034414e+00 1 1  ON 10
 ud_1                 6.969705e-01 1 1  ON 11
 ud_2                 4.375203e-01 1 1  ON 12
 ud_3                 2.352276e-01 1 1  ON 13
 ud_4                 6.617955e-02 1 1  ON 14
 ud_5                -7.177842e-02 1 1  ON 15
 ud_6                -1.822225e-01 1 1  ON 16
 ud_7                -2.706898e-01 1 1  ON 17
 ud_8                -3.068263e-01 1 1  ON 18
 ud_9                -3.296870e-01 1 1  ON 19
eGe_0                -3.665931e-01 1 1  ON 20
eGe_1                -4.066455e-01 1 1  ON 21
eGe_2                -3.715576e-01 1 1  ON 22
eGe_3                -1.687846e-01 1 1  ON 23
eGe_4                 1.713931e-02 1 1  ON 24
eGe_5                 1.919901e-01 1 1  ON 25
eGe_6                 3.056478e-01 1 1  ON 26
eGe_7                 3.612990e-01 1 1  ON 27
eGe_8                 3.029583e-01 1 1  ON 28
eGe_9                 1.201939e-01 1 1  ON 29
  </optVariables>
   Restore the number of walkers to 1, removing 0 walkers.
</opt>
</optimization-report>
  QMC Execution time = 3.204 secs
  Reusing QMCFixedSampleLinearOptimize
 Using QMCCostFunction::QMCCostFunction

=========================================================
  Start QMCFixedSampleLinearOptimize
  File Root Ge.log.s008 append = no 
=========================================================
  Skip QMCDriver::putQMCInfo 
  Resetting Properties of the walkers 1 x 13

=========================================================
  Start VMC
  File Root Ge.log.s008 append = no 
=========================================================
Using existing walkers 
  Resetting Properties of the walkers 1 x 13

<vmc function="put">
  qmc_counter=2  my_counter=7
  time step      = 1.5000e-01
  blocks         = 400
  steps          = 1
  substeps       = 5
  current        = 0
  target samples = 2.5600e+05
  walkers/mpi    = 1

  stepsbetweensamples = 1
<parameter name="blocks" condition="int">400</parameter>
<parameter name="blocks_between_recompute" condition="int">0</parameter>
<parameter name="check_properties" condition="int">100</parameter>
<parameter name="checkproperties" condition="int">100</parameter>
<parameter name="current" condition="int">0</parameter>
<parameter name="dmcwalkersperthread" condition="real">2.5000e+02</parameter>
<parameter name="maxcpusecs" condition="real">3.6000e+05</parameter>
<parameter name="record_configs" condition="int">0</parameter>
<parameter name="record_walkers" condition="int">1</parameter>
<parameter name="recordconfigs" condition="int">0</parameter>
<parameter name="recordwalkers" condition="int">1</parameter>
<parameter name="rewind" condition="int">0</parameter>
<parameter name="samples" condition="real">2.5600e+05</parameter>
<parameter name="samplesperthread" condition="real">2.5000e+02</parameter>
<parameter name="steps" condition="int">1</parameter>
<parameter name="stepsbetweensamples" condition="int">1</parameter>
<parameter name="store_configs" condition="int">0</parameter>
<parameter name="storeconfigs" condition="int">0</parameter>
<parameter name="sub_steps" condition="int">5</parameter>
<parameter name="substeps" condition="int">5</parameter>
<parameter name="tau" condition="au">1.5000e-01</parameter>
<parameter name="time_step" condition="au">1.5000e-01</parameter>
<parameter name="timestep" condition="au">1.5000e-01</parameter>
<parameter name="use_drift" condition="string">no</parameter>
<parameter name="usedrift" condition="string">no</parameter>
<parameter name="walkers" condition="int">1</parameter>
<parameter name="warmup_steps" condition="int">0</parameter>
<parameter name="warmupsteps" condition="int">0</parameter>
  DumpConfig==false Nothing (configurations, state) will be saved.
  Walker Samples are dumped every 1 steps.
</vmc>
  Set drift_modifier UNR parameter a = 1.0000e+00
  EstimatorManagerBase::add replace LocalEnergy estimator.
  Set drift_modifier UNR parameter a = 1.0000e+00
  EstimatorManagerBase::add replace LocalEnergy estimator.
<optimization-report>
<vmc stage="main" blocks="400">
  Cannot make clones again. Use existing 1 clones
  Initial partition of walkers 0 1 
  Using Particle by Particle moves
  Walker moves without drift
  Total Sample Size   =256000
  Walker distribution on root = 0 1 
  Using Locality Approximation
===== Memory Usage after the buffer registration =====
Available memory on node 0, free + buffers : 53237 MB
Memory footprint by rank 0 on node 0       : 590 MB
==================================================
====================================================
  SimpleFixedNodeBranch::finalize after a VMC block
    QMC counter        = 8
    time step          = 0.15
    reference energy   = -3.71144
    reference variance = 0.0561222
====================================================
  Execution time = 2.5758e+00
</vmc>
<opt stage="setup">
  <log>
   Reading configurations from h5FileRoot Ge.log.s008
  QMCCostFunction is created with 1 threads.
  Using Nonlocal PP in Opt: NonLocalECP
   Number of samples loaded to each thread : 250 
  VMC Eavg = -3.6342e+00
  VMC Evar = 8.0615e-01
  Total weights = 2.5600e+05
  Execution time = 3.3730e-01
  </log>
</opt>
<opt stage="main" walkers="256000">
  <log>

*****************************************
Building overlap and Hamiltonian matrices
*****************************************

Among totally 30 optimized parameters, largest LM parameter change : 2.6003e-02 at parameter 10

******************************************************************************
Init Cost =   8.0615e-01    New Cost =   8.0520e-01  Delta Cost =  -9.5246e-04
******************************************************************************

The new set of parameters is valid. Updating the trial wave function!

*****************************************************************************
Applying the update for shift_i =   1.0000e-02     and shift_s =   3.9062e-03
*****************************************************************************
  Execution time = 3.2494e+00
  </log>
  <optVariables href="Ge.log.s008.opt.xml">
 uu_0                 3.014786e-01 1 1  ON 0
 uu_1                 1.725641e-01 1 1  ON 1
 uu_2                 4.229536e-02 1 1  ON 2
 uu_3                -2.968469e-02 1 1  ON 3
 uu_4                -7.640866e-02 1 1  ON 4
 uu_5                -1.093824e-01 1 1  ON 5
 uu_6                -1.240646e-01 1 1  ON 6
 uu_7                -1.298129e-01 1 1  ON 7
 uu_8                -1.112920e-01 1 1  ON 8
 uu_9                -7.645616e-02 1 1  ON 9
 ud_0                 1.060416e+00 1 1  ON 10
 ud_1                 7.153974e-01 1 1  ON 11
 ud_2                 4.578054e-01 1 1  ON 12
 ud_3                 2.567216e-01 1 1  ON 13
 ud_4                 8.819633e-02 1 1  ON 14
 ud_5                -5.233035e-02 1 1  ON 15
 ud_6                -1.636876e-01 1 1  ON 16
 ud_7                -2.490851e-01 1 1  ON 17
 ud_8                -2.846082e-01 1 1  ON 18
 ud_9                -3.085883e-01 1 1  ON 19
eGe_0                -3.924307e-01 1 1  ON 20
eGe_1                -4.192595e-01 1 1  ON 21
eGe_2                -3.767616e-01 1 1  ON 22
eGe_3                -1.717526e-01 1 1  ON 23
eGe_4                 1.634041e-02 1 1  ON 24
eGe_5                 1.858733e-01 1 1  ON 25
eGe_6                 3.013860e-01 1 1  ON 26
eGe_7                 3.675897e-01 1 1  ON 27
eGe_8                 3.286734e-01 1 1  ON 28
eGe_9                 1.429520e-01 1 1  ON 29
  </optVariables>
   Restore the number of walkers to 1, removing 0 walkers.
</opt>
</optimization-report>
  QMC Execution time = 3.257 secs
  Reusing QMCFixedSampleLinearOptimize
 Using QMCCostFunction::QMCCostFunction

=========================================================
  Start QMCFixedSampleLinearOptimize
  File Root Ge.log.s009 append = no 
=========================================================
  Skip QMCDriver::putQMCInfo 
  Resetting Properties of the walkers 1 x 13

=========================================================
  Start VMC
  File Root Ge.log.s009 append = no 
=========================================================
Using existing walkers 
  Resetting Properties of the walkers 1 x 13

<vmc function="put">
  qmc_counter=3  my_counter=8
  time step      = 1.5000e-01
  blocks         = 400
  steps          = 1
  substeps       = 5
  current        = 0
  target samples = 2.5600e+05
  walkers/mpi    = 1

  stepsbetweensamples = 1
<parameter name="blocks" condition="int">400</parameter>
<parameter name="blocks_between_recompute" condition="int">0</parameter>
<parameter name="check_properties" condition="int">100</parameter>
<parameter name="checkproperties" condition="int">100</parameter>
<parameter name="current" condition="int">0</parameter>
<parameter name="dmcwalkersperthread" condition="real">2.5000e+02</parameter>
<parameter name="maxcpusecs" condition="real">3.6000e+05</parameter>
<parameter name="record_configs" condition="int">0</parameter>
<parameter name="record_walkers" condition="int">1</parameter>
<parameter name="recordconfigs" condition="int">0</parameter>
<parameter name="recordwalkers" condition="int">1</parameter>
<parameter name="rewind" condition="int">0</parameter>
<parameter name="samples" condition="real">2.5600e+05</parameter>
<parameter name="samplesperthread" condition="real">2.5000e+02</parameter>
<parameter name="steps" condition="int">1</parameter>
<parameter name="stepsbetweensamples" condition="int">1</parameter>
<parameter name="store_configs" condition="int">0</parameter>
<parameter name="storeconfigs" condition="int">0</parameter>
<parameter name="sub_steps" condition="int">5</parameter>
<parameter name="substeps" condition="int">5</parameter>
<parameter name="tau" condition="au">1.5000e-01</parameter>
<parameter name="time_step" condition="au">1.5000e-01</parameter>
<parameter name="timestep" condition="au">1.5000e-01</parameter>
<parameter name="use_drift" condition="string">no</parameter>
<parameter name="usedrift" condition="string">no</parameter>
<parameter name="walkers" condition="int">1</parameter>
<parameter name="warmup_steps" condition="int">0</parameter>
<parameter name="warmupsteps" condition="int">0</parameter>
  DumpConfig==false Nothing (configurations, state) will be saved.
  Walker Samples are dumped every 1 steps.
</vmc>
  Set drift_modifier UNR parameter a = 1.0000e+00
  EstimatorManagerBase::add replace LocalEnergy estimator.
  Set drift_modifier UNR parameter a = 1.0000e+00
  EstimatorManagerBase::add replace LocalEnergy estimator.
<optimization-report>
<vmc stage="main" blocks="400">
  Cannot make clones again. Use existing 1 clones
  Initial partition of walkers 0 1 
  Using Particle by Particle moves
  Walker moves without drift
  Total Sample Size   =256000
  Walker distribution on root = 0 1 
  Using Locality Approximation
===== Memory Usage after the buffer registration =====
Available memory on node 0, free + buffers : 53233 MB
Memory footprint by rank 0 on node 0       : 592 MB
==================================================
====================================================
  SimpleFixedNodeBranch::finalize after a VMC block
    QMC counter        = 9
    time step          = 0.15
    reference energy   = -3.71963
    reference variance = 0.0392297
====================================================
  Execution time = 2.5625e+00
</vmc>
<opt stage="setup">
  <log>
   Reading configurations from h5FileRoot Ge.log.s009
  QMCCostFunction is created with 1 threads.
  Using Nonlocal PP in Opt: NonLocalECP
   Number of samples loaded to each thread : 250 
  VMC Eavg = -3.6382e+00
  VMC Evar = 8.2762e-01
  Total weights = 2.5600e+05
  Execution time = 3.2850e-01
  </log>
</opt>
<opt stage="main" walkers="256000">
  <log>

*****************************************
Building overlap and Hamiltonian matrices
*****************************************

Among totally 30 optimized parameters, largest LM parameter change : 2.5911e-02 at parameter 17

******************************************************************************
Init Cost =   8.2762e-01    New Cost =   8.2801e-01  Delta Cost =   3.9492e-04
******************************************************************************

The new set of parameters is valid. Updating the trial wave function!

*****************************************************************************
Applying the update for shift_i =   1.0000e-02     and shift_s =   3.9062e-03
*****************************************************************************
  Execution time = 3.2390e+00
  </log>
  <optVariables href="Ge.log.s009.opt.xml">
 uu_0                 3.136339e-01 1 1  ON 0
 uu_1                 1.832121e-01 1 1  ON 1
 uu_2                 5.244997e-02 1 1  ON 2
 uu_3                -1.859519e-02 1 1  ON 3
 uu_4                -7.059999e-02 1 1  ON 4
 uu_5                -1.056756e-01 1 1  ON 5
 uu_6                -1.219236e-01 1 1  ON 6
 uu_7                -1.272787e-01 1 1  ON 7
 uu_8                -1.207769e-01 1 1  ON 8
 uu_9                -8.675988e-02 1 1  ON 9
 ud_0                 1.084134e+00 1 1  ON 10
 ud_1                 7.348403e-01 1 1  ON 11
 ud_2                 4.714464e-01 1 1  ON 12
 ud_3                 2.692863e-01 1 1  ON 13
 ud_4                 1.035568e-01 1 1  ON 14
 ud_5                -3.120771e-02 1 1  ON 15
 ud_6                -1.385363e-01 1 1  ON 16
 ud_7                -2.231737e-01 1 1  ON 17
 ud_8                -2.676922e-01 1 1  ON 18
 ud_9                -2.917384e-01 1 1  ON 19
eGe_0                -4.082643e-01 1 1  ON 20
eGe_1                -4.329777e-01 1 1  ON 21
eGe_2                -3.851823e-01 1 1  ON 22
eGe_3                -1.802631e-01 1 1  ON 23
eGe_4                 7.845578e-03 1 1  ON 24
eGe_5                 1.857964e-01 1 1  ON 25
eGe_6                 3.104105e-01 1 1  ON 26
eGe_7                 3.794927e-01 1 1  ON 27
eGe_8                 3.344938e-01 1 1  ON 28
eGe_9                 1.600384e-01 1 1  ON 29
  </optVariables>
   Restore the number of walkers to 1, removing 0 walkers.
</opt>
</optimization-report>
  QMC Execution time = 3.247 secs
  Reusing QMCFixedSampleLinearOptimize
 Using QMCCostFunction::QMCCostFunction

=========================================================
  Start QMCFixedSampleLinearOptimize
  File Root Ge.log.s010 append = no 
=========================================================
  Skip QMCDriver::putQMCInfo 
  Resetting Properties of the walkers 1 x 13

=========================================================
  Start VMC
  File Root Ge.log.s010 append = no 
=========================================================
Using existing walkers 
  Resetting Properties of the walkers 1 x 13

<vmc function="put">
  qmc_counter=4  my_counter=9
  time step      = 1.5000e-01
  blocks         = 400
  steps          = 1
  substeps       = 5
  current        = 0
  target samples = 2.5600e+05
  walkers/mpi    = 1

  stepsbetweensamples = 1
<parameter name="blocks" condition="int">400</parameter>
<parameter name="blocks_between_recompute" condition="int">0</parameter>
<parameter name="check_properties" condition="int">100</parameter>
<parameter name="checkproperties" condition="int">100</parameter>
<parameter name="current" condition="int">0</parameter>
<parameter name="dmcwalkersperthread" condition="real">2.5000e+02</parameter>
<parameter name="maxcpusecs" condition="real">3.6000e+05</parameter>
<parameter name="record_configs" condition="int">0</parameter>
<parameter name="record_walkers" condition="int">1</parameter>
<parameter name="recordconfigs" condition="int">0</parameter>
<parameter name="recordwalkers" condition="int">1</parameter>
<parameter name="rewind" condition="int">0</parameter>
<parameter name="samples" condition="real">2.5600e+05</parameter>
<parameter name="samplesperthread" condition="real">2.5000e+02</parameter>
<parameter name="steps" condition="int">1</parameter>
<parameter name="stepsbetweensamples" condition="int">1</parameter>
<parameter name="store_configs" condition="int">0</parameter>
<parameter name="storeconfigs" condition="int">0</parameter>
<parameter name="sub_steps" condition="int">5</parameter>
<parameter name="substeps" condition="int">5</parameter>
<parameter name="tau" condition="au">1.5000e-01</parameter>
<parameter name="time_step" condition="au">1.5000e-01</parameter>
<parameter name="timestep" condition="au">1.5000e-01</parameter>
<parameter name="use_drift" condition="string">no</parameter>
<parameter name="usedrift" condition="string">no</parameter>
<parameter name="walkers" condition="int">1</parameter>
<parameter name="warmup_steps" condition="int">0</parameter>
<parameter name="warmupsteps" condition="int">0</parameter>
  DumpConfig==false Nothing (configurations, state) will be saved.
  Walker Samples are dumped every 1 steps.
</vmc>
  Set drift_modifier UNR parameter a = 1.0000e+00
  EstimatorManagerBase::add replace LocalEnergy estimator.
  Set drift_modifier UNR parameter a = 1.0000e+00
  EstimatorManagerBase::add replace LocalEnergy estimator.
<optimization-report>
<vmc stage="main" blocks="400">
  Cannot make clones again. Use existing 1 clones
  Initial partition of walkers 0 1 
  Using Particle by Particle moves
  Walker moves without drift
  Total Sample Size   =256000
  Walker distribution on root = 0 1 
  Using Locality Approximation
===== Memory Usage after the buffer registration =====
Available memory on node 0, free + buffers : 53230 MB
Memory footprint by rank 0 on node 0       : 595 MB
==================================================
====================================================
  SimpleFixedNodeBranch::finalize after a VMC block
    QMC counter        = 10
    time step          = 0.15
    reference energy   = -3.72765
    reference variance = 0.0486278
====================================================
  Execution time = 2.5778e+00
</vmc>
<opt stage="setup">
  <log>
   Reading configurations from h5FileRoot Ge.log.s010
  QMCCostFunction is created with 1 threads.
  Using Nonlocal PP in Opt: NonLocalECP
   Number of samples loaded to each thread : 250 
  VMC Eavg = -3.6371e+00
  VMC Evar = 8.8906e-01
  Total weights = 2.5600e+05
  Execution time = 3.4132e-01
  </log>
</opt>
<opt stage="main" walkers="256000">
  <log>

*****************************************
Building overlap and Hamiltonian matrices
*****************************************

Among totally 30 optimized parameters, largest LM parameter change : 3.1187e-02 at parameter 12

******************************************************************************
Init Cost =   8.8906e-01    New Cost =   8.8834e-01  Delta Cost =  -7.1982e-04
******************************************************************************

The new set of parameters is valid. Updating the trial wave function!

*****************************************************************************
Applying the update for shift_i =   1.0000e-02     and shift_s =   3.9062e-03
*****************************************************************************
  Execution time = 3.2735e+00
  </log>
  <optVariables href="Ge.log.s010.opt.xml">
 uu_0                 3.309870e-01 1 1  ON 0
 uu_1                 1.929466e-01 1 1  ON 1
 uu_2                 6.106816e-02 1 1  ON 2
 uu_3                -1.034597e-02 1 1  ON 3
 uu_4                -6.108227e-02 1 1  ON 4
 uu_5                -9.746644e-02 1 1  ON 5
 uu_6                -1.210227e-01 1 1  ON 6
 uu_7                -1.237686e-01 1 1  ON 7
 uu_8                -1.231557e-01 1 1  ON 8
 uu_9                -9.690011e-02 1 1  ON 9
 ud_0                 1.101844e+00 1 1  ON 10
 ud_1                 7.574832e-01 1 1  ON 11
 ud_2                 5.026331e-01 1 1  ON 12
 ud_3                 2.999059e-01 1 1  ON 13
 ud_4                 1.343741e-01 1 1  ON 14
 ud_5                -4.664536e-03 1 1  ON 15
 ud_6                -1.161779e-01 1 1  ON 16
 ud_7                -2.074430e-01 1 1  ON 17
 ud_8                -2.518694e-01 1 1  ON 18
 ud_9                -2.819447e-01 1 1  ON 19
eGe_0                -4.254412e-01 1 1  ON 20
eGe_1                -4.466809e-01 1 1  ON 21
eGe_2                -3.992957e-01 1 1  ON 22
eGe_3                -1.896581e-01 1 1  ON 23
eGe_4                 7.288586e-03 1 1  ON 24
eGe_5                 1.928375e-01 1 1  ON 25
eGe_6                 3.174701e-01 1 1  ON 26
eGe_7                 3.961242e-01 1 1  ON 27
eGe_8                 3.381026e-01 1 1  ON 28
eGe_9                 1.731572e-01 1 1  ON 29
  </optVariables>
   Restore the number of walkers to 1, removing 0 walkers.
</opt>
</optimization-report>
  QMC Execution time = 3.281 secs
Loop execution max-interations = 10
  Reusing QMCFixedSampleLinearOptimize
 Using QMCCostFunction::QMCCostFunction

=========================================================
  Start QMCFixedSampleLinearOptimize
  File Root Ge.log.s011 append = no 
=========================================================
  Skip QMCDriver::putQMCInfo 
  Resetting Properties of the walkers 1 x 13

=========================================================
  Start VMC
  File Root Ge.log.s011 append = no 
=========================================================
  Using the current 1 walkers.
  Total number of walkers: 1.0240e+03
  Total weight: 1.0240e+03
[...]
eGe_7                 3.798693e-01 1 1  ON 27
eGe_8                 3.787014e-01 1 1  ON 28
eGe_9                 2.896595e-01 1 1  ON 29
  </optVariables>
   Restore the number of walkers to 1, removing 0 walkers.
</opt>
</optimization-report>
  QMC Execution time = 4.93 secs
  Reusing QMCFixedSampleLinearOptimize
 Using QMCCostFunction::QMCCostFunction

=========================================================
  Start QMCFixedSampleLinearOptimize
  File Root Ge.log.s018 append = no 
=========================================================
  Skip QMCDriver::putQMCInfo 
  Resetting Properties of the walkers 1 x 13

=========================================================
  Start VMC
  File Root Ge.log.s018 append = no 
=========================================================
Using existing walkers 
  Resetting Properties of the walkers 1 x 13

<vmc function="put">
  qmc_counter=7  my_counter=17
  time step      = 1.5000e-01
  blocks         = 400
  steps          = 2
  substeps       = 5
  current        = 0
  target samples = 5.1200e+05
  walkers/mpi    = 1

  stepsbetweensamples = 1
<parameter name="blocks" condition="int">400</parameter>
<parameter name="blocks_between_recompute" condition="int">0</parameter>
<parameter name="check_properties" condition="int">100</parameter>
<parameter name="checkproperties" condition="int">100</parameter>
<parameter name="current" condition="int">0</parameter>
<parameter name="dmcwalkersperthread" condition="real">5.0000e+02</parameter>
<parameter name="maxcpusecs" condition="real">3.6000e+05</parameter>
<parameter name="record_configs" condition="int">0</parameter>
<parameter name="record_walkers" condition="int">1</parameter>
<parameter name="recordconfigs" condition="int">0</parameter>
<parameter name="recordwalkers" condition="int">1</parameter>
<parameter name="rewind" condition="int">0</parameter>
<parameter name="samples" condition="real">5.1200e+05</parameter>
<parameter name="samplesperthread" condition="real">5.0000e+02</parameter>
<parameter name="steps" condition="int">2</parameter>
<parameter name="stepsbetweensamples" condition="int">1</parameter>
<parameter name="store_configs" condition="int">0</parameter>
<parameter name="storeconfigs" condition="int">0</parameter>
<parameter name="sub_steps" condition="int">5</parameter>
<parameter name="substeps" condition="int">5</parameter>
<parameter name="tau" condition="au">1.5000e-01</parameter>
<parameter name="time_step" condition="au">1.5000e-01</parameter>
<parameter name="timestep" condition="au">1.5000e-01</parameter>
<parameter name="use_drift" condition="string">no</parameter>
<parameter name="usedrift" condition="string">no</parameter>
<parameter name="walkers" condition="int">1</parameter>
<parameter name="warmup_steps" condition="int">0</parameter>
<parameter name="warmupsteps" condition="int">0</parameter>
  DumpConfig==false Nothing (configurations, state) will be saved.
  Walker Samples are dumped every 1 steps.
</vmc>
  Set drift_modifier UNR parameter a = 1.0000e+00
  EstimatorManagerBase::add replace LocalEnergy estimator.
  Set drift_modifier UNR parameter a = 1.0000e+00
  EstimatorManagerBase::add replace LocalEnergy estimator.
<optimization-report>
<vmc stage="main" blocks="400">
  Cannot make clones again. Use existing 1 clones
  Initial partition of walkers 0 1 
  Using Particle by Particle moves
  Walker moves without drift
  Total Sample Size   =512000
  Walker distribution on root = 0 1 
  Using Locality Approximation
===== Memory Usage after the buffer registration =====
Available memory on node 0, free + buffers : 53198 MB
Memory footprint by rank 0 on node 0       : 617 MB
==================================================
====================================================
  SimpleFixedNodeBranch::finalize after a VMC block
    QMC counter        = 18
    time step          = 0.15
    reference energy   = -3.72364
    reference variance = 0.0469212
====================================================
  Execution time = 3.4844e+00
</vmc>
<opt stage="setup">
  <log>
   Reading configurations from h5FileRoot Ge.log.s018
  QMCCostFunction is created with 1 threads.
  Using Nonlocal PP in Opt: NonLocalECP
   Number of samples loaded to each thread : 500 
  VMC Eavg = -3.6293e+00
  VMC Evar = 9.3242e-01
  Total weights = 5.1200e+05
  Execution time = 7.3078e-01
  </log>
</opt>
<opt stage="main" walkers="512000">
  <log>

*****************************************
Building overlap and Hamiltonian matrices
*****************************************

Among totally 30 optimized parameters, largest LM parameter change : 2.3243e-02 at parameter 11

******************************************************************************
Init Cost =  -3.4012e+00    New Cost =  -3.4021e+00  Delta Cost =  -9.4286e-04
******************************************************************************

The new set of parameters is valid. Updating the trial wave function!

*****************************************************************************
Applying the update for shift_i =   1.0000e-02     and shift_s =   3.9062e-03
*****************************************************************************
  Execution time = 4.9660e+00
  </log>
  <optVariables href="Ge.log.s018.opt.xml">
 uu_0                 3.710046e-01 1 1  ON 0
 uu_1                 1.901390e-01 1 1  ON 1
 uu_2                 5.632032e-02 1 1  ON 2
 uu_3                -1.676658e-02 1 1  ON 3
 uu_4                -6.596177e-02 1 1  ON 4
 uu_5                -1.029857e-01 1 1  ON 5
 uu_6                -1.219327e-01 1 1  ON 6
 uu_7                -1.296422e-01 1 1  ON 7
 uu_8                -1.111084e-01 1 1  ON 8
 uu_9                -8.805942e-02 1 1  ON 9
 ud_0                 1.264828e+00 1 1  ON 10
 ud_1                 9.245189e-01 1 1  ON 11
 ud_2                 6.601874e-01 1 1  ON 12
 ud_3                 4.531940e-01 1 1  ON 13
 ud_4                 2.795783e-01 1 1  ON 14
 ud_5                 1.351317e-01 1 1  ON 15
 ud_6                 1.661763e-02 1 1  ON 16
 ud_7                -7.906747e-02 1 1  ON 17
 ud_8                -1.380549e-01 1 1  ON 18
 ud_9                -1.834638e-01 1 1  ON 19
eGe_0                -4.643165e-01 1 1  ON 20
eGe_1                -4.855866e-01 1 1  ON 21
eGe_2                -4.466522e-01 1 1  ON 22
eGe_3                -2.353446e-01 1 1  ON 23
eGe_4                -3.765041e-02 1 1  ON 24
eGe_5                 1.552240e-01 1 1  ON 25
eGe_6                 2.855187e-01 1 1  ON 26
eGe_7                 3.817978e-01 1 1  ON 27
eGe_8                 3.781675e-01 1 1  ON 28
eGe_9                 2.905101e-01 1 1  ON 29
  </optVariables>
   Restore the number of walkers to 1, removing 0 walkers.
</opt>
</optimization-report>
  QMC Execution time = 4.974 secs
  Reusing QMCFixedSampleLinearOptimize
 Using QMCCostFunction::QMCCostFunction

=========================================================
  Start QMCFixedSampleLinearOptimize
  File Root Ge.log.s019 append = no 
=========================================================
  Skip QMCDriver::putQMCInfo 
  Resetting Properties of the walkers 1 x 13

=========================================================
  Start VMC
  File Root Ge.log.s019 append = no 
=========================================================
Using existing walkers 
  Resetting Properties of the walkers 1 x 13

<vmc function="put">
  qmc_counter=8  my_counter=18
  time step      = 1.5000e-01
  blocks         = 400
  steps          = 2
  substeps       = 5
  current        = 0
  target samples = 5.1200e+05
  walkers/mpi    = 1

  stepsbetweensamples = 1
<parameter name="blocks" condition="int">400</parameter>
<parameter name="blocks_between_recompute" condition="int">0</parameter>
<parameter name="check_properties" condition="int">100</parameter>
<parameter name="checkproperties" condition="int">100</parameter>
<parameter name="current" condition="int">0</parameter>
<parameter name="dmcwalkersperthread" condition="real">5.0000e+02</parameter>
<parameter name="maxcpusecs" condition="real">3.6000e+05</parameter>
<parameter name="record_configs" condition="int">0</parameter>
<parameter name="record_walkers" condition="int">1</parameter>
<parameter name="recordconfigs" condition="int">0</parameter>
<parameter name="recordwalkers" condition="int">1</parameter>
<parameter name="rewind" condition="int">0</parameter>
<parameter name="samples" condition="real">5.1200e+05</parameter>
<parameter name="samplesperthread" condition="real">5.0000e+02</parameter>
<parameter name="steps" condition="int">2</parameter>
<parameter name="stepsbetweensamples" condition="int">1</parameter>
<parameter name="store_configs" condition="int">0</parameter>
<parameter name="storeconfigs" condition="int">0</parameter>
<parameter name="sub_steps" condition="int">5</parameter>
<parameter name="substeps" condition="int">5</parameter>
<parameter name="tau" condition="au">1.5000e-01</parameter>
<parameter name="time_step" condition="au">1.5000e-01</parameter>
<parameter name="timestep" condition="au">1.5000e-01</parameter>
<parameter name="use_drift" condition="string">no</parameter>
<parameter name="usedrift" condition="string">no</parameter>
<parameter name="walkers" condition="int">1</parameter>
<parameter name="warmup_steps" condition="int">0</parameter>
<parameter name="warmupsteps" condition="int">0</parameter>
  DumpConfig==false Nothing (configurations, state) will be saved.
  Walker Samples are dumped every 1 steps.
</vmc>
  Set drift_modifier UNR parameter a = 1.0000e+00
  EstimatorManagerBase::add replace LocalEnergy estimator.
  Set drift_modifier UNR parameter a = 1.0000e+00
  EstimatorManagerBase::add replace LocalEnergy estimator.
<optimization-report>
<vmc stage="main" blocks="400">
  Cannot make clones again. Use existing 1 clones
  Initial partition of walkers 0 1 
  Using Particle by Particle moves
  Walker moves without drift
  Total Sample Size   =512000
  Walker distribution on root = 0 1 
  Using Locality Approximation
===== Memory Usage after the buffer registration =====
Available memory on node 0, free + buffers : 53193 MB
Memory footprint by rank 0 on node 0       : 619 MB
==================================================
====================================================
  SimpleFixedNodeBranch::finalize after a VMC block
    QMC counter        = 19
    time step          = 0.15
    reference energy   = -3.71274
    reference variance = 0.0467501
====================================================
  Execution time = 3.4554e+00
</vmc>
<opt stage="setup">
  <log>
   Reading configurations from h5FileRoot Ge.log.s019
  QMCCostFunction is created with 1 threads.
  Using Nonlocal PP in Opt: NonLocalECP
   Number of samples loaded to each thread : 500 
  VMC Eavg = -3.6320e+00
  VMC Evar = 8.2188e-01
  Total weights = 5.1200e+05
  Execution time = 7.3614e-01
  </log>
</opt>
<opt stage="main" walkers="512000">
  <log>

*****************************************
Building overlap and Hamiltonian matrices
*****************************************

Among totally 30 optimized parameters, largest LM parameter change : 2.1171e-02 at parameter 29

******************************************************************************
Init Cost =  -3.4093e+00    New Cost =  -3.4092e+00  Delta Cost =   1.3618e-04
******************************************************************************

The new set of parameters is valid. Updating the trial wave function!

*****************************************************************************
Applying the update for shift_i =   1.0000e-02     and shift_s =   3.9062e-03
*****************************************************************************
  Execution time = 4.9469e+00
  </log>
  <optVariables href="Ge.log.s019.opt.xml">
 uu_0                 3.714243e-01 1 1  ON 0
 uu_1                 1.817791e-01 1 1  ON 1
 uu_2                 5.270790e-02 1 1  ON 2
 uu_3                -1.836986e-02 1 1  ON 3
 uu_4                -6.736345e-02 1 1  ON 4
 uu_5                -1.023669e-01 1 1  ON 5
 uu_6                -1.226739e-01 1 1  ON 6
 uu_7                -1.267160e-01 1 1  ON 7
 uu_8                -1.134207e-01 1 1  ON 8
 uu_9                -8.128337e-02 1 1  ON 9
 ud_0                 1.275853e+00 1 1  ON 10
 ud_1                 9.309332e-01 1 1  ON 11
 ud_2                 6.695642e-01 1 1  ON 12
 ud_3                 4.647482e-01 1 1  ON 13
 ud_4                 2.952849e-01 1 1  ON 14
 ud_5                 1.526682e-01 1 1  ON 15
 ud_6                 3.573892e-02 1 1  ON 16
 ud_7                -6.109904e-02 1 1  ON 17
 ud_8                -1.187998e-01 1 1  ON 18
 ud_9                -1.651229e-01 1 1  ON 19
eGe_0                -4.603227e-01 1 1  ON 20
eGe_1                -4.994099e-01 1 1  ON 21
eGe_2                -4.556152e-01 1 1  ON 22
eGe_3                -2.451718e-01 1 1  ON 23
eGe_4                -4.572335e-02 1 1  ON 24
eGe_5                 1.441531e-01 1 1  ON 25
eGe_6                 2.752528e-01 1 1  ON 26
eGe_7                 3.781044e-01 1 1  ON 27
eGe_8                 3.933054e-01 1 1  ON 28
eGe_9                 3.116808e-01 1 1  ON 29
  </optVariables>
   Restore the number of walkers to 1, removing 0 walkers.
</opt>
</optimization-report>
  QMC Execution time = 4.956 secs
  Reusing QMCFixedSampleLinearOptimize
 Using QMCCostFunction::QMCCostFunction

=========================================================
  Start QMCFixedSampleLinearOptimize
  File Root Ge.log.s020 append = no 
=========================================================
  Skip QMCDriver::putQMCInfo 
  Resetting Properties of the walkers 1 x 13

=========================================================
  Start VMC
  File Root Ge.log.s020 append = no 
=========================================================
Using existing walkers 
  Resetting Properties of the walkers 1 x 13

<vmc function="put">
  qmc_counter=9  my_counter=19
  time step      = 1.5000e-01
  blocks         = 400
  steps          = 2
  substeps       = 5
  current        = 0
  target samples = 5.1200e+05
  walkers/mpi    = 1

  stepsbetweensamples = 1
<parameter name="blocks" condition="int">400</parameter>
<parameter name="blocks_between_recompute" condition="int">0</parameter>
<parameter name="check_properties" condition="int">100</parameter>
<parameter name="checkproperties" condition="int">100</parameter>
<parameter name="current" condition="int">0</parameter>
<parameter name="dmcwalkersperthread" condition="real">5.0000e+02</parameter>
<parameter name="maxcpusecs" condition="real">3.6000e+05</parameter>
<parameter name="record_configs" condition="int">0</parameter>
<parameter name="record_walkers" condition="int">1</parameter>
<parameter name="recordconfigs" condition="int">0</parameter>
<parameter name="recordwalkers" condition="int">1</parameter>
<parameter name="rewind" condition="int">0</parameter>
<parameter name="samples" condition="real">5.1200e+05</parameter>
<parameter name="samplesperthread" condition="real">5.0000e+02</parameter>
<parameter name="steps" condition="int">2</parameter>
<parameter name="stepsbetweensamples" condition="int">1</parameter>
<parameter name="store_configs" condition="int">0</parameter>
<parameter name="storeconfigs" condition="int">0</parameter>
<parameter name="sub_steps" condition="int">5</parameter>
<parameter name="substeps" condition="int">5</parameter>
<parameter name="tau" condition="au">1.5000e-01</parameter>
<parameter name="time_step" condition="au">1.5000e-01</parameter>
<parameter name="timestep" condition="au">1.5000e-01</parameter>
<parameter name="use_drift" condition="string">no</parameter>
<parameter name="usedrift" condition="string">no</parameter>
<parameter name="walkers" condition="int">1</parameter>
<parameter name="warmup_steps" condition="int">0</parameter>
<parameter name="warmupsteps" condition="int">0</parameter>
  DumpConfig==false Nothing (configurations, state) will be saved.
  Walker Samples are dumped every 1 steps.
</vmc>
  Set drift_modifier UNR parameter a = 1.0000e+00
  EstimatorManagerBase::add replace LocalEnergy estimator.
  Set drift_modifier UNR parameter a = 1.0000e+00
  EstimatorManagerBase::add replace LocalEnergy estimator.
<optimization-report>
<vmc stage="main" blocks="400">
  Cannot make clones again. Use existing 1 clones
  Initial partition of walkers 0 1 
  Using Particle by Particle moves
  Walker moves without drift
  Total Sample Size   =512000
  Walker distribution on root = 0 1 
  Using Locality Approximation
===== Memory Usage after the buffer registration =====
Available memory on node 0, free + buffers : 53190 MB
Memory footprint by rank 0 on node 0       : 622 MB
==================================================
====================================================
  SimpleFixedNodeBranch::finalize after a VMC block
    QMC counter        = 20
    time step          = 0.15
    reference energy   = -3.72945
    reference variance = 0.0444019
====================================================
  Execution time = 3.5081e+00
</vmc>
<opt stage="setup">
  <log>
   Reading configurations from h5FileRoot Ge.log.s020
  QMCCostFunction is created with 1 threads.
  Using Nonlocal PP in Opt: NonLocalECP
   Number of samples loaded to each thread : 500 
  VMC Eavg = -3.6421e+00
  VMC Evar = 6.8428e-01
  Total weights = 5.1200e+05
  Execution time = 7.5493e-01
  </log>
</opt>
<opt stage="main" walkers="512000">
  <log>

*****************************************
Building overlap and Hamiltonian matrices
*****************************************

Among totally 30 optimized parameters, largest LM parameter change : 3.3553e-02 at parameter 20

******************************************************************************
Init Cost =  -3.4258e+00    New Cost =  -3.4243e+00  Delta Cost =   1.4907e-03
******************************************************************************

The new set of parameters is valid. Updating the trial wave function!

*****************************************************************************
Applying the update for shift_i =   1.0000e-02     and shift_s =   3.9062e-03
*****************************************************************************
  Execution time = 5.0138e+00
  </log>
  <optVariables href="Ge.log.s020.opt.xml">
 uu_0                 3.762231e-01 1 1  ON 0
 uu_1                 2.017750e-01 1 1  ON 1
 uu_2                 6.959088e-02 1 1  ON 2
 uu_3                -5.669439e-03 1 1  ON 3
 uu_4                -6.004956e-02 1 1  ON 4
 uu_5                -1.001170e-01 1 1  ON 5
 uu_6                -1.237715e-01 1 1  ON 6
 uu_7                -1.328792e-01 1 1  ON 7
 uu_8                -1.209800e-01 1 1  ON 8
 uu_9                -9.491301e-02 1 1  ON 9
 ud_0                 1.282813e+00 1 1  ON 10
 ud_1                 9.361963e-01 1 1  ON 11
 ud_2                 6.738571e-01 1 1  ON 12
 ud_3                 4.704909e-01 1 1  ON 13
 ud_4                 3.043518e-01 1 1  ON 14
 ud_5                 1.673749e-01 1 1  ON 15
 ud_6                 5.602254e-02 1 1  ON 16
 ud_7                -3.561926e-02 1 1  ON 17
 ud_8                -9.658406e-02 1 1  ON 18
 ud_9                -1.443210e-01 1 1  ON 19
eGe_0                -4.938753e-01 1 1  ON 20
eGe_1                -5.044844e-01 1 1  ON 21
eGe_2                -4.478884e-01 1 1  ON 22
eGe_3                -2.372961e-01 1 1  ON 23
eGe_4                -3.958800e-02 1 1  ON 24
eGe_5                 1.498524e-01 1 1  ON 25
eGe_6                 2.802338e-01 1 1  ON 26
eGe_7                 3.709067e-01 1 1  ON 27
eGe_8                 3.832759e-01 1 1  ON 28
eGe_9                 3.150376e-01 1 1  ON 29
  </optVariables>
   Restore the number of walkers to 1, removing 0 walkers.
</opt>
</optimization-report>
  QMC Execution time = 5.022 secs
  Total Execution time = 79.55 secs

=========================================================
  A new xml input file : Ge.log.s020.cont.xml
TACC:  Shutdown complete. Exiting. 
