TACC:  Starting up job 2693923 
TACC:  Starting parallel tasks... 
  Input file(s): Sc.log.qmc.in-wfj.xml 

=====================================================
                    QMCPACK 3.5.0 

       (c) Copyright 2003-  QMCPACK developers

                    Please cite:
 J. Kim et al. J. Phys. Cond. Mat. 30 195901 (2018)
      https://doi.org/10.1088/1361-648X/aab9c3

  Git branch: develop
  Last git commit: ca320f40410f5ef17c38db08d5c54848ef64bfe1
  Last git commit date: Tue Dec 18 15:37:17 2018 +0800
  Last git commit subject: Merge pull request #764 from Paul-St-Young/dat-h5
=====================================================
  Global options 

  MPI Nodes             = 1024
  MPI Nodes per group   = 1024
  MPI Group ID          = 0
  OMP 1st level threads = 1
  OMP nested threading disabled or only 1 thread on the 2nd level

  Precision used in this calculation, see definitions in the manual:
  Base precision      = double
  Full precision      = double

  Structure-of-arrays (SoA) optimization enabled

  Input XML = Sc.log.qmc.in-wfj.xml

  Project = Sc.log
  date    = 2018-12-26 22:15:33 CST
  host    = c455-022.stampede2.tacc.utexas.edu

 Random Number
 -------------
  Offset for the random number seeds based on time: 485

  Range of prime numbers to use as seeds over processors and threads = 3469-12647


 Particle Set 
 ------------
  Name: ion0
  All the species have the same mass 1
  Particle set size: 1

 Particle Set 
 ------------
  Name: e
  All the species have the same mass 1
  Particle set size: 11

 Wavefunction setup: 
 ------------------- 
  Name: psi0
  LCAO: SoaAtomicBasisSet<MultiQuintic,1>

  Distance table for similar particles (A-A):
    source/target: e
    Using structure-of-arrays (SoA) data layout
    Distance computations use open boundary conditions in 3D.


  Distance table for dissimilar particles (A-B):
    source: ion0  target: e
    Using structure-of-arrays (SoA) data layout
    Distance computations use open boundary conditions in 3D.

Reading BasisSet from HDF5 file:Sc.log.h5
<input node="atomicBasisSet" name="gaussian" expandYlm="pyscf" angular="spherical" elementType="Sc" normalized="no" type="Numerical" expM="0" />
  AO BasisSet for Sc
   Spherical Harmonics contain (-1)^m factor
   Angular momentum m expanded as -l, ... ,l, with the exception of L=1 (1,-1,0)
   Grid is created by the input paremters in h5
    Using log grid ri = 1e-06 rf = 100 npts = 1001
   R(n,l,m,s) 0 0 0 0
   R(n,l,m,s) 1 0 0 0
   R(n,l,m,s) 2 0 0 0
   R(n,l,m,s) 3 0 0 0
   R(n,l,m,s) 4 0 0 0
   R(n,l,m,s) 5 0 0 0
   R(n,l,m,s) 6 0 0 0
   R(n,l,m,s) 7 0 0 0
   R(n,l,m,s) 8 1 0 0
   R(n,l,m,s) 9 1 0 0
   R(n,l,m,s) 10 1 0 0
   R(n,l,m,s) 11 1 0 0
   R(n,l,m,s) 12 1 0 0
   R(n,l,m,s) 13 1 0 0
   R(n,l,m,s) 14 1 0 0
   R(n,l,m,s) 15 1 0 0
   R(n,l,m,s) 16 2 0 0
   R(n,l,m,s) 17 2 0 0
   R(n,l,m,s) 18 2 0 0
   R(n,l,m,s) 19 2 0 0
   R(n,l,m,s) 20 2 0 0
   R(n,l,m,s) 21 2 0 0
   R(n,l,m,s) 22 2 0 0
   R(n,l,m,s) 23 3 0 0
   R(n,l,m,s) 24 3 0 0
   R(n,l,m,s) 25 3 0 0
   R(n,l,m,s) 26 3 0 0
   R(n,l,m,s) 27 4 0 0
   R(n,l,m,s) 28 4 0 0
   R(n,l,m,s) 29 4 0 0
   R(n,l,m,s) 30 5 0 0
   R(n,l,m,s) 31 5 0 0
Expanding Ylm as L=1 as (1,-1,0) and L>1 as -l,-l+1,...,l-1,l
   Adding 1 spherical orbitals
   Adding 1 spherical orbitals
   Adding 1 spherical orbitals
   Adding 1 spherical orbitals
   Adding 1 spherical orbitals
   Adding 1 spherical orbitals
   Adding 1 spherical orbitals
   Adding 1 spherical orbitals
   Adding 3 spherical orbitals
   Adding 3 spherical orbitals
   Adding 3 spherical orbitals
   Adding 3 spherical orbitals
   Adding 3 spherical orbitals
   Adding 3 spherical orbitals
   Adding 3 spherical orbitals
   Adding 3 spherical orbitals
   Adding 5 spherical orbitals
   Adding 5 spherical orbitals
   Adding 5 spherical orbitals
   Adding 5 spherical orbitals
   Adding 5 spherical orbitals
   Adding 5 spherical orbitals
   Adding 5 spherical orbitals
   Adding 7 spherical orbitals
   Adding 7 spherical orbitals
   Adding 7 spherical orbitals
   Adding 7 spherical orbitals
   Adding 9 spherical orbitals
   Adding 9 spherical orbitals
   Adding 9 spherical orbitals
   Adding 11 spherical orbitals
   Adding 11 spherical orbitals
   Maximum Angular Momentum  = 5
   Number of Radial functors = 32
   Basis size                = 144

  Created SPOSet builder named 'LCAOBSet' of type molecularorbital
Reuse SPOSetBuilder "LCAOBSet" type MolecularOrbital
  Building SPOSet '' with '' basis set.
Reuse SPOSetBuilder "LCAOBSet" type MolecularOrbital
  Building SPOSet '' with '' basis set.
  Creating a determinant updet group=0 sposet=updet
  Reusing a SPO set updet
Using DiracDeterminant 
Using rank-1 Sherman-Morrison Fahy update

  Creating a determinant downdet group=1 sposet=downdet
  Reusing a SPO set downdet
Using DiracDeterminant 
Using rank-1 Sherman-Morrison Fahy update

  FermionWF = SlaterDet
  RadialJastrowBuilder adds a functor with cusp = -0.25
 size = 10 parameters 
 cusp = -0.25
 rcut = 12.1
Parameter     Name      Value
uu_0 0 1 1  ON 0
uu_1 0 1 1  ON 1
uu_2 0 1 1  ON 2
uu_3 0 1 1  ON 3
uu_4 0 1 1  ON 4
uu_5 0 1 1  ON 5
uu_6 0 1 1  ON 6
uu_7 0 1 1  ON 7
uu_8 0 1 1  ON 8
uu_9 0 1 1  ON 9
  RadialJastrowBuilder adds a functor with cusp = -0.5
 size = 10 parameters 
 cusp = -0.5
 rcut = 12.1
Parameter     Name      Value
ud_0 0 1 1  ON 0
ud_1 0 1 1  ON 1
ud_2 0 1 1  ON 2
ud_3 0 1 1  ON 3
ud_4 0 1 1  ON 4
ud_5 0 1 1  ON 5
ud_6 0 1 1  ON 6
ud_7 0 1 1  ON 7
ud_8 0 1 1  ON 8
ud_9 0 1 1  ON 9
 size = 10 parameters 
 cusp = 0
 rcut = 12.1
Parameter     Name      Value
eSc_0 0 1 1  ON 0
eSc_1 0 1 1  ON 1
eSc_2 0 1 1  ON 2
eSc_3 0 1 1  ON 3
eSc_4 0 1 1  ON 4
eSc_5 0 1 1  ON 5
eSc_6 0 1 1  ON 6
eSc_7 0 1 1  ON 7
eSc_8 0 1 1  ON 8
eSc_9 0 1 1  ON 9
Expected 26 parameters, but found 0 in PolynomialFunctor3D.
Expected 26 parameters, but found 0 in PolynomialFunctor3D.
  QMCHamiltonian::addOperator Kinetic to H, physical Hamiltonian 
  QMCHamiltonian::addOperator ElecElec to H, physical Hamiltonian 
QMCHamiltonian::addOperatorType added type coulomb named ElecElec
  CoulombAA for ion0 is not created.  Number of particles == 1 and nonPeriodic

  ECPotential builder for pseudopotential 

  Adding pseudopotential for Sc
   Linear grid  ri=0 rf=10 npts = 10001
    ECPComponentBuilder::buildSemiLocalAndLocal 
    Assuming Hartree unit
   Number of angular momentum channels 3
   Maximum angular momentum channel 2
   Creating a Linear Grid Rmax=1.7
  Using global grid with delta = 0.001
   Making L=2 a local potential with a radial cutoff of 9.999
    Non-local pseudopotential parameters
    Maximum angular mementum = 1
    Number of non-local channels = 2
       l(0)=0
       l(1)=1
    Cutoff radius = 1.7
    Spherical grids and weights: 
                        1                 0                 0       0.08333333333
                       -1   1.224646799e-16                 0       0.08333333333
             0.4472135955       0.894427191                 0       0.08333333333
            -0.4472135955      0.7236067977      0.5257311121       0.08333333333
             0.4472135955      0.2763932023      0.8506508084       0.08333333333
            -0.4472135955     -0.2763932023      0.8506508084       0.08333333333
             0.4472135955     -0.7236067977      0.5257311121       0.08333333333
            -0.4472135955      -0.894427191   1.095357397e-16       0.08333333333
             0.4472135955     -0.7236067977     -0.5257311121       0.08333333333
            -0.4472135955     -0.2763932023     -0.8506508084       0.08333333333
             0.4472135955      0.2763932023     -0.8506508084       0.08333333333
            -0.4472135955      0.7236067977     -0.5257311121       0.08333333333
    Maximum cutoff radius 1.7
  QMCHamiltonian::addOperator LocalECP to H, physical Hamiltonian 

  Using NonLocalECP potential 
    Maximum grid on a sphere for NonLocalECPotential: 12
  QMCHamiltonian::addOperator NonLocalECP to H, physical Hamiltonian 
QMCHamiltonian::addOperatorType added type pseudo named PseudoPot

  QMCHamiltonian::add2WalkerProperty added
    4 to P::PropertyList 
    0 to P::Collectables 
    starting Index of the observables in P::PropertyList = 9
ParticleSetPool::randomize 
<init source="ion0" target="e">
</init>
  Initialization Execution time = 1.02 secs
=========================================================
 Summary of QMC systems 
=========================================================
ParticleSetPool has: 

  ParticleSet e : 0 6 11 

    11

    u -1.1910117093e+00 -7.0028336683e-01 -3.4328029440e-01
    u  6.3014074302e-01 -3.1943003359e-01 -5.6997186487e-01
    u  1.6688390311e+00 -2.5530119918e+00 -3.7505283182e+00
    u  4.2943271323e-01 -5.8147483596e-01  8.3040686904e-01
    u -2.5498035201e+00  3.8846850472e-01  6.2711593084e-01
    u  4.1314773732e-01  4.6568104323e-01 -6.4409883651e-01
    d -9.1130913222e-01  1.4025690021e+00 -3.5731736189e+00
    d -4.6546913554e+00  1.6936317524e+00 -1.5343530948e+00
    d  7.9486377842e-01  6.4610959362e-01 -2.6733575898e+00
    d  5.8870202442e-01  1.4257362762e+00  4.7263588591e-01
    (... and 1 more particle positions ...)

  ParticleSet ion0 : 0 1 

    1

    Sc  0.0000000000e+00  0.0000000000e+00  0.0000000000e+00

  Hamiltonian h0
  Kinetic         Kinetic energy
  ElecElec        CoulombAA source/target e

  LocalECP        LocalECPotential: ion0
  NonLocalECP     NonLocalECPotential: ion0

=========================================================
  Start VMC
  File Root Sc.log.s000 append = no 
=========================================================
  Adding 1 walkers to 0 existing sets
  Total number of walkers: 1.0240000000e+03
  Total weight: 1.0240000000e+03
  Resetting Properties of the walkers 1 x 13

<vmc function="put">
  qmc_counter=0  my_counter=0
  time step      = 1.5000000000e-01
  blocks         = 200
  steps          = 1
  substeps       = 5
  current        = 0
  target samples = 1.0240000000e+03
  walkers/mpi    = 1

  stepsbetweensamples = 200
<parameter name="blocks" condition="int">200</parameter>
<parameter name="blocks_between_recompute" condition="int">0</parameter>
<parameter name="check_properties" condition="int">100</parameter>
<parameter name="checkproperties" condition="int">100</parameter>
<parameter name="current" condition="int">0</parameter>
<parameter name="dmcwalkersperthread" condition="real">1.0000000000e+00</parameter>
<parameter name="maxcpusecs" condition="real">3.6000000000e+05</parameter>
<parameter name="record_configs" condition="int">0</parameter>
<parameter name="record_walkers" condition="int">200</parameter>
<parameter name="recordconfigs" condition="int">0</parameter>
<parameter name="recordwalkers" condition="int">200</parameter>
<parameter name="rewind" condition="int">0</parameter>
<parameter name="samples" condition="real">1.0240000000e+03</parameter>
<parameter name="samplesperthread" condition="real">1.0000000000e+00</parameter>
<parameter name="steps" condition="int">1</parameter>
<parameter name="stepsbetweensamples" condition="int">200</parameter>
<parameter name="store_configs" condition="int">0</parameter>
<parameter name="storeconfigs" condition="int">0</parameter>
<parameter name="sub_steps" condition="int">5</parameter>
<parameter name="substeps" condition="int">5</parameter>
<parameter name="tau" condition="au">1.5000000000e-01</parameter>
<parameter name="time_step" condition="au">1.5000000000e-01</parameter>
<parameter name="timestep" condition="au">1.5000000000e-01</parameter>
<parameter name="use_drift" condition="string">no</parameter>
<parameter name="usedrift" condition="string">no</parameter>
<parameter name="walkers" condition="int">1</parameter>
<parameter name="warmup_steps" condition="int">100</parameter>
<parameter name="warmupsteps" condition="int">100</parameter>
  DumpConfig==false Nothing (configurations, state) will be saved.
  Walker Samples are dumped every 200 steps.
</vmc>
  Initial partition of walkers 0 1 

  Using Particle by Particle moves
  Walker moves without drift
  Total Sample Size   =1024
  Walker distribution on root = 0 1 
  Using Locality Approximation
===== Memory Usage after the buffer registration =====
Available memory on node 0, free + buffers : 80621 MB
Memory footprint by rank 0 on node 0       : 74 MB
==================================================
  Anonymous Buffer size per walker : 4832 Bytes.
MEMORY increase 0 MB VMC::resetRun
====================================================
  SimpleFixedNodeBranch::finalize after a VMC block
    QMC counter        = 0
    time step          = 0.15
    reference energy   = -46.2089
    reference variance = 1.79578
====================================================
  QMC Execution time = 1.4307e+00 secs 
Loop execution max-interations = 5

=========================================================
  Start QMCFixedSampleLinearOptimize
  File Root Sc.log.s001 append = no 
=========================================================
  Skip QMCDriver::putQMCInfo 
  Resetting Properties of the walkers 1 x 13

=========================================================
  Start VMC
  File Root Sc.log.s001 append = no 
=========================================================
  Using the current 1 walkers.
  Total number of walkers: 1.0240e+03
  Total weight: 1.0240e+03
  Resetting Properties of the walkers 1 x 13

<vmc function="put">
  qmc_counter=0  my_counter=0
  time step      = 1.5000e-01
  blocks         = 200
  steps          = 2
  substeps       = 5
  current        = 0
  target samples = 2.5600e+05
  walkers/mpi    = 1

  stepsbetweensamples = 1
<parameter name="blocks" condition="int">200</parameter>
<parameter name="blocks_between_recompute" condition="int">0</parameter>
<parameter name="check_properties" condition="int">100</parameter>
<parameter name="checkproperties" condition="int">100</parameter>
<parameter name="current" condition="int">0</parameter>
<parameter name="dmcwalkersperthread" condition="real">2.5000e+02</parameter>
<parameter name="maxcpusecs" condition="real">3.6000e+05</parameter>
<parameter name="record_configs" condition="int">0</parameter>
<parameter name="record_walkers" condition="int">1</parameter>
<parameter name="recordconfigs" condition="int">0</parameter>
<parameter name="recordwalkers" condition="int">1</parameter>
<parameter name="rewind" condition="int">0</parameter>
<parameter name="samples" condition="real">2.5600e+05</parameter>
<parameter name="samplesperthread" condition="real">2.5000e+02</parameter>
<parameter name="steps" condition="int">2</parameter>
<parameter name="stepsbetweensamples" condition="int">1</parameter>
<parameter name="store_configs" condition="int">0</parameter>
<parameter name="storeconfigs" condition="int">0</parameter>
<parameter name="sub_steps" condition="int">5</parameter>
<parameter name="substeps" condition="int">5</parameter>
<parameter name="tau" condition="au">1.5000e-01</parameter>
<parameter name="time_step" condition="au">1.5000e-01</parameter>
<parameter name="timestep" condition="au">1.5000e-01</parameter>
<parameter name="use_drift" condition="string">no</parameter>
<parameter name="usedrift" condition="string">no</parameter>
<parameter name="walkers" condition="int">1</parameter>
<parameter name="warmup_steps" condition="int">0</parameter>
<parameter name="warmupsteps" condition="int">0</parameter>
  DumpConfig==false Nothing (configurations, state) will be saved.
  Walker Samples are dumped every 1 steps.
</vmc>
    Restarting, cummulative properties:
      energy     = -4.6209e+01
      variance   = 0.0000e+00
      r2accepted = 1.0000e-10
      r2proposed = 1.0000e-10
 Using QMCCostFunction::QMCCostFunction
  EstimatorManagerBase::add replace LocalEnergy estimator.
<optimization-report>
<vmc stage="main" blocks="200">
  Cannot make clones again. Use existing 1 clones
  Initial partition of walkers 0 1 

  Using Particle by Particle moves
  Walker moves without drift
  Total Sample Size   =256000
  Walker distribution on root = 0 1 
  Using Locality Approximation
===== Memory Usage after the buffer registration =====
Available memory on node 0, free + buffers : 80613 MB
Memory footprint by rank 0 on node 0       : 75 MB
==================================================
  Anonymous Buffer size per walker : 4832 Bytes.
MEMORY increase 0 MB VMC::resetRun
====================================================
  SimpleFixedNodeBranch::finalize after a VMC block
    QMC counter        = 1
    time step          = 0.15
    reference energy   = -46.1852
    reference variance = 1.74627
====================================================
  Execution time = 1.9128e+00
</vmc>
<opt stage="setup">
  <log>
   Reading configurations from h5FileRoot Sc.log.s001
  QMCCostFunction is created with 1 threads.
  Using Nonlocal PP in Opt: NonLocalECP
   Number of samples loaded to each thread : 250 
  VMC Eavg = -4.6220e+01
  VMC Evar = 1.7023e+00
  Total weights = 2.5600e+05
  Execution time = 3.6175e-01
  </log>
</opt>
<opt stage="main" walkers="256000">
  <log>

*****************************************
Building overlap and Hamiltonian matrices
*****************************************

Among totally 30 optimized parameters, largest LM parameter change : 7.7704e-01 at parameter 20

******************************************************************************
Init Cost =   1.7023e+00    New Cost =   6.8899e-01  Delta Cost =  -1.0133e+00
******************************************************************************

The new set of parameters is valid. Updating the trial wave function!

*****************************************************************************
Applying the update for shift_i =   1.0000e-02     and shift_s =   2.5000e-01
*****************************************************************************
  Execution time = 3.4037e+00
  </log>
  <optVariables href="Sc.log.s001.opt.xml">
uu_0 1.8208e-01 1 1  ON 0
uu_1 3.2688e-02 1 1  ON 1
uu_2 -2.2485e-02 1 1  ON 2
uu_3 -4.1475e-02 1 1  ON 3
uu_4 -4.2851e-02 1 1  ON 4
uu_5 -3.8209e-02 1 1  ON 5
uu_6 -2.2628e-02 1 1  ON 6
uu_7 -6.5924e-03 1 1  ON 7
uu_8 1.0597e-02 1 1  ON 8
uu_9 1.2336e-02 1 1  ON 9
ud_0 2.9814e-01 1 1  ON 10
ud_1 6.8509e-02 1 1  ON 11
ud_2 1.1465e-02 1 1  ON 12
ud_3 -2.1284e-02 1 1  ON 13
ud_4 -2.7274e-02 1 1  ON 14
ud_5 -3.5158e-02 1 1  ON 15
ud_6 -3.3697e-02 1 1  ON 16
ud_7 -3.1059e-02 1 1  ON 17
ud_8 -2.7082e-02 1 1  ON 18
ud_9 -2.8017e-02 1 1  ON 19
eSc_0 -7.7704e-01 1 1  ON 20
eSc_1 -3.7160e-01 1 1  ON 21
eSc_2 3.6819e-02 1 1  ON 22
eSc_3 2.0357e-01 1 1  ON 23
eSc_4 2.8421e-01 1 1  ON 24
eSc_5 2.6963e-01 1 1  ON 25
eSc_6 2.0766e-01 1 1  ON 26
eSc_7 1.1364e-01 1 1  ON 27
eSc_8 4.4978e-02 1 1  ON 28
eSc_9 6.9651e-03 1 1  ON 29
  </optVariables>
   Restore the number of walkers to 1, removing 0 walkers.
</opt>
</optimization-report>
  QMC Execution time = 3.4144e+00 secs 
  Reusing QMCFixedSampleLinearOptimize
 Using QMCCostFunction::QMCCostFunction

=========================================================
  Start QMCFixedSampleLinearOptimize
  File Root Sc.log.s002 append = no 
=========================================================
  Skip QMCDriver::putQMCInfo 
  Resetting Properties of the walkers 1 x 13

=========================================================
  Start VMC
  File Root Sc.log.s002 append = no 
=========================================================
Using existing walkers 
  Resetting Properties of the walkers 1 x 13

<vmc function="put">
  qmc_counter=1  my_counter=1
  time step      = 1.5000e-01
  blocks         = 200
  steps          = 2
  substeps       = 5
  current        = 0
  target samples = 2.5600e+05
  walkers/mpi    = 1

  stepsbetweensamples = 1
<parameter name="blocks" condition="int">200</parameter>
<parameter name="blocks_between_recompute" condition="int">0</parameter>
<parameter name="check_properties" condition="int">100</parameter>
<parameter name="checkproperties" condition="int">100</parameter>
<parameter name="current" condition="int">0</parameter>
<parameter name="dmcwalkersperthread" condition="real">2.5000e+02</parameter>
<parameter name="maxcpusecs" condition="real">3.6000e+05</parameter>
<parameter name="record_configs" condition="int">0</parameter>
<parameter name="record_walkers" condition="int">1</parameter>
<parameter name="recordconfigs" condition="int">0</parameter>
<parameter name="recordwalkers" condition="int">1</parameter>
<parameter name="rewind" condition="int">0</parameter>
<parameter name="samples" condition="real">2.5600e+05</parameter>
<parameter name="samplesperthread" condition="real">2.5000e+02</parameter>
<parameter name="steps" condition="int">2</parameter>
<parameter name="stepsbetweensamples" condition="int">1</parameter>
<parameter name="store_configs" condition="int">0</parameter>
<parameter name="storeconfigs" condition="int">0</parameter>
<parameter name="sub_steps" condition="int">5</parameter>
<parameter name="substeps" condition="int">5</parameter>
<parameter name="tau" condition="au">1.5000e-01</parameter>
<parameter name="time_step" condition="au">1.5000e-01</parameter>
<parameter name="timestep" condition="au">1.5000e-01</parameter>
<parameter name="use_drift" condition="string">no</parameter>
<parameter name="usedrift" condition="string">no</parameter>
<parameter name="walkers" condition="int">1</parameter>
<parameter name="warmup_steps" condition="int">0</parameter>
<parameter name="warmupsteps" condition="int">0</parameter>
  DumpConfig==false Nothing (configurations, state) will be saved.
  Walker Samples are dumped every 1 steps.
</vmc>
  EstimatorManagerBase::add replace LocalEnergy estimator.
  EstimatorManagerBase::add replace LocalEnergy estimator.
<optimization-report>
<vmc stage="main" blocks="200">
  Cannot make clones again. Use existing 1 clones
  Initial partition of walkers 0 1 
  Using Particle by Particle moves
  Walker moves without drift
  Total Sample Size   =256000
  Walker distribution on root = 0 1 
  Using Locality Approximation
===== Memory Usage after the buffer registration =====
Available memory on node 0, free + buffers : 80600 MB
Memory footprint by rank 0 on node 0       : 76 MB
==================================================
====================================================
  SimpleFixedNodeBranch::finalize after a VMC block
    QMC counter        = 2
    time step          = 0.15
    reference energy   = -46.4204
    reference variance = 0.649487
====================================================
  Execution time = 3.2771e+00
</vmc>
<opt stage="setup">
  <log>
   Reading configurations from h5FileRoot Sc.log.s002
  QMCCostFunction is created with 1 threads.
  Using Nonlocal PP in Opt: NonLocalECP
   Number of samples loaded to each thread : 250 
  VMC Eavg = -4.6427e+01
  VMC Evar = 5.8793e-01
  Total weights = 2.5600e+05
  Execution time = 1.0671e+00
  </log>
</opt>
<opt stage="main" walkers="256000">
  <log>

*****************************************
Building overlap and Hamiltonian matrices
*****************************************

Among totally 30 optimized parameters, largest LM parameter change : 4.6270e-01 at parameter 20

******************************************************************************
Init Cost =   5.8793e-01    New Cost =   6.5266e-01  Delta Cost =   6.4731e-02
******************************************************************************

The new set of parameters is valid. Updating the trial wave function!

*****************************************************************************
Applying the update for shift_i =   1.0000e-02     and shift_s =   6.2500e-02
*****************************************************************************
  Execution time = 5.3982e+00
  </log>
  <optVariables href="Sc.log.s002.opt.xml">
uu_0 2.5415e-01 1 1  ON 0
uu_1 5.2357e-02 1 1  ON 1
uu_2 -3.2996e-02 1 1  ON 2
uu_3 -7.0806e-02 1 1  ON 3
uu_4 -7.4663e-02 1 1  ON 4
uu_5 -6.9270e-02 1 1  ON 5
uu_6 -4.2313e-02 1 1  ON 6
uu_7 -1.1618e-02 1 1  ON 7
uu_8 2.3537e-02 1 1  ON 8
uu_9 3.0656e-02 1 1  ON 9
ud_0 4.2831e-01 1 1  ON 10
ud_1 1.3561e-01 1 1  ON 11
ud_2 4.2606e-02 1 1  ON 12
ud_3 -1.4882e-02 1 1  ON 13
ud_4 -3.4031e-02 1 1  ON 14
ud_5 -5.2376e-02 1 1  ON 15
ud_6 -5.4360e-02 1 1  ON 16
ud_7 -5.6803e-02 1 1  ON 17
ud_8 -4.9418e-02 1 1  ON 18
ud_9 -4.2115e-02 1 1  ON 19
eSc_0 -1.2397e+00 1 1  ON 20
eSc_1 -6.6722e-01 1 1  ON 21
eSc_2 -3.9075e-02 1 1  ON 22
eSc_3 2.8465e-01 1 1  ON 23
eSc_4 4.6494e-01 1 1  ON 24
eSc_5 4.7727e-01 1 1  ON 25
eSc_6 4.0026e-01 1 1  ON 26
eSc_7 2.3111e-01 1 1  ON 27
eSc_8 9.6568e-02 1 1  ON 28
eSc_9 1.3888e-02 1 1  ON 29
  </optVariables>
   Restore the number of walkers to 1, removing 0 walkers.
</opt>
</optimization-report>
  QMC Execution time = 5.4084e+00 secs 
  Reusing QMCFixedSampleLinearOptimize
 Using QMCCostFunction::QMCCostFunction

=========================================================
  Start QMCFixedSampleLinearOptimize
  File Root Sc.log.s003 append = no 
=========================================================
  Skip QMCDriver::putQMCInfo 
  Resetting Properties of the walkers 1 x 13

=========================================================
  Start VMC
  File Root Sc.log.s003 append = no 
=========================================================
Using existing walkers 
  Resetting Properties of the walkers 1 x 13

<vmc function="put">
  qmc_counter=2  my_counter=2
  time step      = 1.5000e-01
  blocks         = 200
  steps          = 2
  substeps       = 5
  current        = 0
  target samples = 2.5600e+05
  walkers/mpi    = 1

  stepsbetweensamples = 1
<parameter name="blocks" condition="int">200</parameter>
<parameter name="blocks_between_recompute" condition="int">0</parameter>
<parameter name="check_properties" condition="int">100</parameter>
<parameter name="checkproperties" condition="int">100</parameter>
<parameter name="current" condition="int">0</parameter>
<parameter name="dmcwalkersperthread" condition="real">2.5000e+02</parameter>
<parameter name="maxcpusecs" condition="real">3.6000e+05</parameter>
<parameter name="record_configs" condition="int">0</parameter>
<parameter name="record_walkers" condition="int">1</parameter>
<parameter name="recordconfigs" condition="int">0</parameter>
<parameter name="recordwalkers" condition="int">1</parameter>
<parameter name="rewind" condition="int">0</parameter>
<parameter name="samples" condition="real">2.5600e+05</parameter>
<parameter name="samplesperthread" condition="real">2.5000e+02</parameter>
<parameter name="steps" condition="int">2</parameter>
<parameter name="stepsbetweensamples" condition="int">1</parameter>
<parameter name="store_configs" condition="int">0</parameter>
<parameter name="storeconfigs" condition="int">0</parameter>
<parameter name="sub_steps" condition="int">5</parameter>
<parameter name="substeps" condition="int">5</parameter>
<parameter name="tau" condition="au">1.5000e-01</parameter>
<parameter name="time_step" condition="au">1.5000e-01</parameter>
<parameter name="timestep" condition="au">1.5000e-01</parameter>
<parameter name="use_drift" condition="string">no</parameter>
<parameter name="usedrift" condition="string">no</parameter>
<parameter name="walkers" condition="int">1</parameter>
<parameter name="warmup_steps" condition="int">0</parameter>
<parameter name="warmupsteps" condition="int">0</parameter>
  DumpConfig==false Nothing (configurations, state) will be saved.
  Walker Samples are dumped every 1 steps.
</vmc>
  EstimatorManagerBase::add replace LocalEnergy estimator.
  EstimatorManagerBase::add replace LocalEnergy estimator.
<optimization-report>
<vmc stage="main" blocks="200">
  Cannot make clones again. Use existing 1 clones
  Initial partition of walkers 0 1 
  Using Particle by Particle moves
  Walker moves without drift
  Total Sample Size   =256000
  Walker distribution on root = 0 1 
  Using Locality Approximation
===== Memory Usage after the buffer registration =====
Available memory on node 0, free + buffers : 80599 MB
Memory footprint by rank 0 on node 0       : 78 MB
==================================================
====================================================
  SimpleFixedNodeBranch::finalize after a VMC block
    QMC counter        = 3
    time step          = 0.15
    reference energy   = -46.4577
    reference variance = 0.581168
====================================================
  Execution time = 3.2094e+00
</vmc>
<opt stage="setup">
  <log>
   Reading configurations from h5FileRoot Sc.log.s003
  QMCCostFunction is created with 1 threads.
  Using Nonlocal PP in Opt: NonLocalECP
   Number of samples loaded to each thread : 250 
  VMC Eavg = -4.6460e+01
  VMC Evar = 6.1942e-01
  Total weights = 2.5600e+05
  Execution time = 1.0403e+00
  </log>
</opt>
<opt stage="main" walkers="256000">
  <log>

*****************************************
Building overlap and Hamiltonian matrices
*****************************************

Among totally 30 optimized parameters, largest LM parameter change : 2.4160e-01 at parameter 20

******************************************************************************
Init Cost =   6.1942e-01    New Cost =   6.5998e-01  Delta Cost =   4.0557e-02
******************************************************************************

The new set of parameters is valid. Updating the trial wave function!

*****************************************************************************
Applying the update for shift_i =   1.0000e-02     and shift_s =   1.5625e-02
*****************************************************************************
  Execution time = 5.0721e+00
  </log>
  <optVariables href="Sc.log.s003.opt.xml">
uu_0 2.8312e-01 1 1  ON 0
uu_1 6.9388e-02 1 1  ON 1
uu_2 -2.6128e-02 1 1  ON 2
uu_3 -7.4375e-02 1 1  ON 3
uu_4 -8.9587e-02 1 1  ON 4
uu_5 -8.9505e-02 1 1  ON 5
uu_6 -6.7288e-02 1 1  ON 6
uu_7 -2.8368e-02 1 1  ON 7
uu_8 1.7391e-02 1 1  ON 8
uu_9 3.0333e-02 1 1  ON 9
ud_0 4.6689e-01 1 1  ON 10
ud_1 1.6166e-01 1 1  ON 11
ud_2 5.7843e-02 1 1  ON 12
ud_3 -1.1152e-02 1 1  ON 13
ud_4 -3.9710e-02 1 1  ON 14
ud_5 -6.5761e-02 1 1  ON 15
ud_6 -7.0300e-02 1 1  ON 16
ud_7 -7.0495e-02 1 1  ON 17
ud_8 -5.4626e-02 1 1  ON 18
ud_9 -4.5799e-02 1 1  ON 19
eSc_0 -1.4813e+00 1 1  ON 20
eSc_1 -8.5849e-01 1 1  ON 21
eSc_2 -1.5584e-01 1 1  ON 22
eSc_3 2.6369e-01 1 1  ON 23
eSc_4 5.3472e-01 1 1  ON 24
eSc_5 6.1865e-01 1 1  ON 25
eSc_6 5.6178e-01 1 1  ON 26
eSc_7 3.6436e-01 1 1  ON 27
eSc_8 1.4804e-01 1 1  ON 28
eSc_9 2.2227e-02 1 1  ON 29
  </optVariables>
   Restore the number of walkers to 1, removing 0 walkers.
</opt>
</optimization-report>
  QMC Execution time = 5.0822e+00 secs 
  Reusing QMCFixedSampleLinearOptimize
 Using QMCCostFunction::QMCCostFunction

=========================================================
  Start QMCFixedSampleLinearOptimize
  File Root Sc.log.s004 append = no 
=========================================================
  Skip QMCDriver::putQMCInfo 
  Resetting Properties of the walkers 1 x 13

=========================================================
  Start VMC
  File Root Sc.log.s004 append = no 
=========================================================
Using existing walkers 
  Resetting Properties of the walkers 1 x 13

<vmc function="put">
  qmc_counter=3  my_counter=3
  time step      = 1.5000e-01
  blocks         = 200
  steps          = 2
  substeps       = 5
  current        = 0
  target samples = 2.5600e+05
  walkers/mpi    = 1

  stepsbetweensamples = 1
<parameter name="blocks" condition="int">200</parameter>
<parameter name="blocks_between_recompute" condition="int">0</parameter>
<parameter name="check_properties" condition="int">100</parameter>
<parameter name="checkproperties" condition="int">100</parameter>
<parameter name="current" condition="int">0</parameter>
<parameter name="dmcwalkersperthread" condition="real">2.5000e+02</parameter>
<parameter name="maxcpusecs" condition="real">3.6000e+05</parameter>
<parameter name="record_configs" condition="int">0</parameter>
<parameter name="record_walkers" condition="int">1</parameter>
<parameter name="recordconfigs" condition="int">0</parameter>
<parameter name="recordwalkers" condition="int">1</parameter>
<parameter name="rewind" condition="int">0</parameter>
<parameter name="samples" condition="real">2.5600e+05</parameter>
<parameter name="samplesperthread" condition="real">2.5000e+02</parameter>
<parameter name="steps" condition="int">2</parameter>
<parameter name="stepsbetweensamples" condition="int">1</parameter>
<parameter name="store_configs" condition="int">0</parameter>
<parameter name="storeconfigs" condition="int">0</parameter>
<parameter name="sub_steps" condition="int">5</parameter>
<parameter name="substeps" condition="int">5</parameter>
<parameter name="tau" condition="au">1.5000e-01</parameter>
<parameter name="time_step" condition="au">1.5000e-01</parameter>
<parameter name="timestep" condition="au">1.5000e-01</parameter>
<parameter name="use_drift" condition="string">no</parameter>
<parameter name="usedrift" condition="string">no</parameter>
<parameter name="walkers" condition="int">1</parameter>
<parameter name="warmup_steps" condition="int">0</parameter>
<parameter name="warmupsteps" condition="int">0</parameter>
  DumpConfig==false Nothing (configurations, state) will be saved.
  Walker Samples are dumped every 1 steps.
</vmc>
  EstimatorManagerBase::add replace LocalEnergy estimator.
  EstimatorManagerBase::add replace LocalEnergy estimator.
<optimization-report>
<vmc stage="main" blocks="200">
  Cannot make clones again. Use existing 1 clones
  Initial partition of walkers 0 1 
  Using Particle by Particle moves
  Walker moves without drift
  Total Sample Size   =256000
  Walker distribution on root = 0 1 
  Using Locality Approximation
===== Memory Usage after the buffer registration =====
Available memory on node 0, free + buffers : 80597 MB
Memory footprint by rank 0 on node 0       : 79 MB
==================================================
====================================================
  SimpleFixedNodeBranch::finalize after a VMC block
    QMC counter        = 4
    time step          = 0.15
    reference energy   = -46.4987
    reference variance = 0.652528
====================================================
  Execution time = 2.9241e+00
</vmc>
<opt stage="setup">
  <log>
   Reading configurations from h5FileRoot Sc.log.s004
  QMCCostFunction is created with 1 threads.
  Using Nonlocal PP in Opt: NonLocalECP
   Number of samples loaded to each thread : 250 
  VMC Eavg = -4.6466e+01
  VMC Evar = 6.4554e-01
  Total weights = 2.5600e+05
  Execution time = 8.3489e-01
  </log>
</opt>
<opt stage="main" walkers="256000">
  <log>

*****************************************
Building overlap and Hamiltonian matrices
*****************************************

Among totally 30 optimized parameters, largest LM parameter change : 1.3961e-01 at parameter 20

******************************************************************************
Init Cost =   6.4554e-01    New Cost =   6.5478e-01  Delta Cost =   9.2446e-03
******************************************************************************

The new set of parameters is valid. Updating the trial wave function!

*****************************************************************************
Applying the update for shift_i =   1.0000e-02     and shift_s =   3.9062e-03
*****************************************************************************
  Execution time = 4.3932e+00
  </log>
  <optVariables href="Sc.log.s004.opt.xml">
uu_0 2.9269e-01 1 1  ON 0
uu_1 7.6159e-02 1 1  ON 1
uu_2 -2.1387e-02 1 1  ON 2
uu_3 -7.6423e-02 1 1  ON 3
uu_4 -9.7100e-02 1 1  ON 4
uu_5 -1.0083e-01 1 1  ON 5
uu_6 -8.0260e-02 1 1  ON 6
uu_7 -4.0003e-02 1 1  ON 7
uu_8 1.3861e-02 1 1  ON 8
uu_9 3.5771e-02 1 1  ON 9
ud_0 4.9301e-01 1 1  ON 10
ud_1 1.8706e-01 1 1  ON 11
ud_2 7.9270e-02 1 1  ON 12
ud_3 5.8864e-03 1 1  ON 13
ud_4 -3.0261e-02 1 1  ON 14
ud_5 -6.2233e-02 1 1  ON 15
ud_6 -7.5368e-02 1 1  ON 16
ud_7 -7.4729e-02 1 1  ON 17
ud_8 -6.3195e-02 1 1  ON 18
ud_9 -4.8894e-02 1 1  ON 19
eSc_0 -1.6210e+00 1 1  ON 20
eSc_1 -9.8615e-01 1 1  ON 21
eSc_2 -2.5302e-01 1 1  ON 22
eSc_3 2.2446e-01 1 1  ON 23
eSc_4 5.4547e-01 1 1  ON 24
eSc_5 6.9371e-01 1 1  ON 25
eSc_6 6.8016e-01 1 1  ON 26
eSc_7 4.7557e-01 1 1  ON 27
eSc_8 2.1962e-01 1 1  ON 28
eSc_9 4.2265e-02 1 1  ON 29
  </optVariables>
   Restore the number of walkers to 1, removing 0 walkers.
</opt>
</optimization-report>
  QMC Execution time = 5.5379e+00 secs 
  Reusing QMCFixedSampleLinearOptimize
 Using QMCCostFunction::QMCCostFunction

=========================================================
  Start QMCFixedSampleLinearOptimize
  File Root Sc.log.s005 append = no 
=========================================================
  Skip QMCDriver::putQMCInfo 
  Resetting Properties of the walkers 1 x 13

=========================================================
  Start VMC
  File Root Sc.log.s005 append = no 
=========================================================
Using existing walkers 
  Resetting Properties of the walkers 1 x 13

<vmc function="put">
  qmc_counter=4  my_counter=4
  time step      = 1.5000e-01
  blocks         = 200
  steps          = 2
  substeps       = 5
  current        = 0
  target samples = 2.5600e+05
  walkers/mpi    = 1

  stepsbetweensamples = 1
<parameter name="blocks" condition="int">200</parameter>
<parameter name="blocks_between_recompute" condition="int">0</parameter>
<parameter name="check_properties" condition="int">100</parameter>
<parameter name="checkproperties" condition="int">100</parameter>
<parameter name="current" condition="int">0</parameter>
<parameter name="dmcwalkersperthread" condition="real">2.5000e+02</parameter>
<parameter name="maxcpusecs" condition="real">3.6000e+05</parameter>
<parameter name="record_configs" condition="int">0</parameter>
<parameter name="record_walkers" condition="int">1</parameter>
<parameter name="recordconfigs" condition="int">0</parameter>
<parameter name="recordwalkers" condition="int">1</parameter>
<parameter name="rewind" condition="int">0</parameter>
<parameter name="samples" condition="real">2.5600e+05</parameter>
<parameter name="samplesperthread" condition="real">2.5000e+02</parameter>
<parameter name="steps" condition="int">2</parameter>
<parameter name="stepsbetweensamples" condition="int">1</parameter>
<parameter name="store_configs" condition="int">0</parameter>
<parameter name="storeconfigs" condition="int">0</parameter>
<parameter name="sub_steps" condition="int">5</parameter>
<parameter name="substeps" condition="int">5</parameter>
<parameter name="tau" condition="au">1.5000e-01</parameter>
<parameter name="time_step" condition="au">1.5000e-01</parameter>
<parameter name="timestep" condition="au">1.5000e-01</parameter>
<parameter name="use_drift" condition="string">no</parameter>
<parameter name="usedrift" condition="string">no</parameter>
<parameter name="walkers" condition="int">1</parameter>
<parameter name="warmup_steps" condition="int">0</parameter>
<parameter name="warmupsteps" condition="int">0</parameter>
  DumpConfig==false Nothing (configurations, state) will be saved.
  Walker Samples are dumped every 1 steps.
</vmc>
  EstimatorManagerBase::add replace LocalEnergy estimator.
  EstimatorManagerBase::add replace LocalEnergy estimator.
<optimization-report>
<vmc stage="main" blocks="200">
  Cannot make clones again. Use existing 1 clones
  Initial partition of walkers 0 1 
  Using Particle by Particle moves
  Walker moves without drift
  Total Sample Size   =256000
  Walker distribution on root = 0 1 
  Using Locality Approximation
===== Memory Usage after the buffer registration =====
Available memory on node 0, free + buffers : 80595 MB
Memory footprint by rank 0 on node 0       : 81 MB
==================================================
====================================================
  SimpleFixedNodeBranch::finalize after a VMC block
    QMC counter        = 5
    time step          = 0.15
    reference energy   = -46.4581
    reference variance = 0.642162
====================================================
  Execution time = 2.7349e+00
</vmc>
<opt stage="setup">
  <log>
   Reading configurations from h5FileRoot Sc.log.s005
  QMCCostFunction is created with 1 threads.
  Using Nonlocal PP in Opt: NonLocalECP
   Number of samples loaded to each thread : 250 
  VMC Eavg = -4.6465e+01
  VMC Evar = 6.5639e-01
  Total weights = 2.5600e+05
  Execution time = 6.2928e-01
  </log>
</opt>
<opt stage="main" walkers="256000">
  <log>

*****************************************
Building overlap and Hamiltonian matrices
*****************************************

Among totally 30 optimized parameters, largest LM parameter change : 1.0690e-01 at parameter 20

******************************************************************************
Init Cost =   6.5639e-01    New Cost =   6.6827e-01  Delta Cost =   1.1883e-02
******************************************************************************

The new set of parameters is valid. Updating the trial wave function!

*****************************************************************************
Applying the update for shift_i =   1.0000e-02     and shift_s =   3.9062e-03
*****************************************************************************
  Execution time = 3.8918e+00
  </log>
  <optVariables href="Sc.log.s005.opt.xml">
uu_0 2.9659e-01 1 1  ON 0
uu_1 7.7605e-02 1 1  ON 1
uu_2 -2.2343e-02 1 1  ON 2
uu_3 -7.9606e-02 1 1  ON 3
uu_4 -1.0304e-01 1 1  ON 4
uu_5 -1.1462e-01 1 1  ON 5
uu_6 -9.7572e-02 1 1  ON 6
uu_7 -5.8541e-02 1 1  ON 7
uu_8 -1.8750e-03 1 1  ON 8
uu_9 3.2153e-02 1 1  ON 9
ud_0 5.0930e-01 1 1  ON 10
ud_1 2.0049e-01 1 1  ON 11
ud_2 9.0652e-02 1 1  ON 12
ud_3 1.3464e-02 1 1  ON 13
ud_4 -2.7254e-02 1 1  ON 14
ud_5 -6.2951e-02 1 1  ON 15
ud_6 -7.9769e-02 1 1  ON 16
ud_7 -8.4612e-02 1 1  ON 17
ud_8 -6.9885e-02 1 1  ON 18
ud_9 -5.6150e-02 1 1  ON 19
eSc_0 -1.7279e+00 1 1  ON 20
eSc_1 -1.0813e+00 1 1  ON 21
eSc_2 -3.3036e-01 1 1  ON 22
eSc_3 1.7328e-01 1 1  ON 23
eSc_4 5.4192e-01 1 1  ON 24
eSc_5 7.3951e-01 1 1  ON 25
eSc_6 7.7577e-01 1 1  ON 26
eSc_7 5.8118e-01 1 1  ON 27
eSc_8 2.7760e-01 1 1  ON 28
eSc_9 5.7041e-02 1 1  ON 29
  </optVariables>
   Restore the number of walkers to 1, removing 0 walkers.
</opt>
</optimization-report>
  QMC Execution time = 3.9507e+00 secs 
Loop execution max-interations = 5
  Reusing QMCFixedSampleLinearOptimize
 Using QMCCostFunction::QMCCostFunction

=========================================================
  Start QMCFixedSampleLinearOptimize
  File Root Sc.log.s006 append = no 
=========================================================
  Skip QMCDriver::putQMCInfo 
  Resetting Properties of the walkers 1 x 13

=========================================================
  Start VMC
  File Root Sc.log.s006 append = no 
=========================================================
  Using the current 1 walkers.
  Total number of walkers: 1.0240e+03
  Total weight: 1.0240e+03
  Resetting Properties of the walkers 1 x 13

<vmc function="put">
  qmc_counter=0  my_counter=5
  time step      = 1.5000e-01
  blocks         = 200
  steps          = 2
  substeps       = 5
  current        = 0
  target samples = 2.5600e+05
  walkers/mpi    = 1

  stepsbetweensamples = 1
<parameter name="blocks" condition="int">200</parameter>
<parameter name="blocks_between_recompute" condition="int">0</parameter>
<parameter name="check_properties" condition="int">100</parameter>
<parameter name="checkproperties" condition="int">100</parameter>
<parameter name="current" condition="int">0</parameter>
<parameter name="dmcwalkersperthread" condition="real">2.5000e+02</parameter>
<parameter name="maxcpusecs" condition="real">3.6000e+05</parameter>
<parameter name="record_configs" condition="int">0</parameter>
<parameter name="record_walkers" condition="int">1</parameter>
<parameter name="recordconfigs" condition="int">0</parameter>
<parameter name="recordwalkers" condition="int">1</parameter>
<parameter name="rewind" condition="int">0</parameter>
<parameter name="samples" condition="real">2.5600e+05</parameter>
<parameter name="samplesperthread" condition="real">2.5000e+02</parameter>
<parameter name="steps" condition="int">2</parameter>
<parameter name="stepsbetweensamples" condition="int">1</parameter>
<parameter name="store_configs" condition="int">0</parameter>
<parameter name="storeconfigs" condition="int">0</parameter>
<parameter name="sub_steps" condition="int">5</parameter>
<parameter name="substeps" condition="int">5</parameter>
<parameter name="tau" condition="au">1.5000e-01</parameter>
<parameter name="time_step" condition="au">1.5000e-01</parameter>
<parameter name="timestep" condition="au">1.5000e-01</parameter>
<parameter name="use_drift" condition="string">no</parameter>
<parameter name="usedrift" condition="string">no</parameter>
<parameter name="walkers" condition="int">1</parameter>
<parameter name="warmup_steps" condition="int">0</parameter>
<parameter name="warmupsteps" condition="int">0</parameter>
  DumpConfig==false Nothing (configurations, state) will be saved.
  Walker Samples are dumped every 1 steps.
</vmc>
  EstimatorManagerBase::add replace LocalEnergy estimator.
  EstimatorManagerBase::add replace LocalEnergy estimator.
<optimization-report>
<vmc stage="main" blocks="200">
  Cannot make clones again. Use existing 1 clones
  Initial partition of walkers 0 1 
  Using Particle by Particle moves
  Walker moves without drift
  Total Sample Size   =256000
  Walker distribution on root = 0 1 
  Using Locality Approximation
===== Memory Usage after the buffer registration =====
Available memory on node 0, free + buffers : 80593 MB
Memory footprint by rank 0 on node 0       : 83 MB
==================================================
====================================================
  SimpleFixedNodeBranch::finalize after a VMC block
    QMC counter        = 6
    time step          = 0.15
    reference energy   = -46.4511
    reference variance = 0.758699
====================================================
  Execution time = 2.6357e+00
</vmc>
<opt stage="setup">
  <log>
   Reading configurations from h5FileRoot Sc.log.s006
  QMCCostFunction is created with 1 threads.
  Using Nonlocal PP in Opt: NonLocalECP
   Number of samples loaded to each thread : 250 
  VMC Eavg = -4.6468e+01
  VMC Evar = 6.6201e-01
  Total weights = 2.5600e+05
  Execution time = 5.3694e-01
  </log>
</opt>
<opt stage="main" walkers="256000">
  <log>

*****************************************
Building overlap and Hamiltonian matrices
*****************************************

Among totally 30 optimized parameters, largest LM parameter change : 8.9960e-02 at parameter 27

******************************************************************************
Init Cost =   6.6201e-01    New Cost =   6.6696e-01  Delta Cost =   4.9459e-03
******************************************************************************

The new set of parameters is valid. Updating the trial wave function!

*****************************************************************************
Applying the update for shift_i =   1.0000e-02     and shift_s =   3.9062e-03
*****************************************************************************
  Execution time = 3.6507e+00
  </log>
  <optVariables href="Sc.log.s006.opt.xml">
uu_0 2.9588e-01 1 1  ON 0
uu_1 7.6166e-02 1 1  ON 1
uu_2 -2.5544e-02 1 1  ON 2
uu_3 -8.4912e-02 1 1  ON 3
uu_4 -1.1149e-01 1 1  ON 4
uu_5 -1.2784e-01 1 1  ON 5
uu_6 -1.1351e-01 1 1  ON 6
uu_7 -8.0448e-02 1 1  ON 7
uu_8 -1.7909e-02 1 1  ON 8
uu_9 2.7243e-02 1 1  ON 9
ud_0 5.1449e-01 1 1  ON 10
ud_1 2.0563e-01 1 1  ON 11
ud_2 9.3753e-02 1 1  ON 12
ud_3 1.4129e-02 1 1  ON 13
ud_4 -2.8863e-02 1 1  ON 14
ud_5 -6.7189e-02 1 1  ON 15
ud_6 -9.1913e-02 1 1  ON 16
ud_7 -9.8029e-02 1 1  ON 17
ud_8 -7.8612e-02 1 1  ON 18
ud_9 -5.4935e-02 1 1  ON 19
eSc_0 -1.8101e+00 1 1  ON 20
eSc_1 -1.1559e+00 1 1  ON 21
eSc_2 -3.9278e-01 1 1  ON 22
eSc_3 1.3119e-01 1 1  ON 23
eSc_4 5.3012e-01 1 1  ON 24
eSc_5 7.6607e-01 1 1  ON 25
eSc_6 8.3150e-01 1 1  ON 26
eSc_7 6.7114e-01 1 1  ON 27
eSc_8 3.4458e-01 1 1  ON 28
eSc_9 7.7980e-02 1 1  ON 29
  </optVariables>
   Restore the number of walkers to 1, removing 0 walkers.
</opt>
</optimization-report>
  QMC Execution time = 3.6611e+00 secs 
  Reusing QMCFixedSampleLinearOptimize
 Using QMCCostFunction::QMCCostFunction

=========================================================
  Start QMCFixedSampleLinearOptimize
  File Root Sc.log.s007 append = no 
=========================================================
  Skip QMCDriver::putQMCInfo 
  Resetting Properties of the walkers 1 x 13

=========================================================
  Start VMC
  File Root Sc.log.s007 append = no 
=========================================================
Using existing walkers 
  Resetting Properties of the walkers 1 x 13

<vmc function="put">
  qmc_counter=1  my_counter=6
  time step      = 1.5000e-01
  blocks         = 200
  steps          = 2
  substeps       = 5
  current        = 0
  target samples = 2.5600e+05
  walkers/mpi    = 1

  stepsbetweensamples = 1
<parameter name="blocks" condition="int">200</parameter>
<parameter name="blocks_between_recompute" condition="int">0</parameter>
<parameter name="check_properties" condition="int">100</parameter>
<parameter name="checkproperties" condition="int">100</parameter>
<parameter name="current" condition="int">0</parameter>
<parameter name="dmcwalkersperthread" condition="real">2.5000e+02</parameter>
<parameter name="maxcpusecs" condition="real">3.6000e+05</parameter>
<parameter name="record_configs" condition="int">0</parameter>
<parameter name="record_walkers" condition="int">1</parameter>
<parameter name="recordconfigs" condition="int">0</parameter>
<parameter name="recordwalkers" condition="int">1</parameter>
<parameter name="rewind" condition="int">0</parameter>
<parameter name="samples" condition="real">2.5600e+05</parameter>
<parameter name="samplesperthread" condition="real">2.5000e+02</parameter>
<parameter name="steps" condition="int">2</parameter>
<parameter name="stepsbetweensamples" condition="int">1</parameter>
<parameter name="store_configs" condition="int">0</parameter>
<parameter name="storeconfigs" condition="int">0</parameter>
<parameter name="sub_steps" condition="int">5</parameter>
<parameter name="substeps" condition="int">5</parameter>
<parameter name="tau" condition="au">1.5000e-01</parameter>
<parameter name="time_step" condition="au">1.5000e-01</parameter>
<parameter name="timestep" condition="au">1.5000e-01</parameter>
<parameter name="use_drift" condition="string">no</parameter>
<parameter name="usedrift" condition="string">no</parameter>
<parameter name="walkers" condition="int">1</parameter>
<parameter name="warmup_steps" condition="int">0</parameter>
<parameter name="warmupsteps" condition="int">0</parameter>
  DumpConfig==false Nothing (configurations, state) will be saved.
  Walker Samples are dumped every 1 steps.
</vmc>
  EstimatorManagerBase::add replace LocalEnergy estimator.
  EstimatorManagerBase::add replace LocalEnergy estimator.
<optimization-report>
<vmc stage="main" blocks="200">
  Cannot make clones again. Use existing 1 clones
  Initial partition of walkers 0 1 
  Using Particle by Particle moves
  Walker moves without drift
  Total Sample Size   =256000
  Walker distribution on root = 0 1 
  Using Locality Approximation
===== Memory Usage after the buffer registration =====
Available memory on node 0, free + buffers : 80591 MB
Memory footprint by rank 0 on node 0       : 84 MB
==================================================
====================================================
  SimpleFixedNodeBranch::finalize after a VMC block
    QMC counter        = 7
    time step          = 0.15
    reference energy   = -46.515
    reference variance = 0.894691
====================================================
  Execution time = 2.4754e+00
</vmc>
<opt stage="setup">
  <log>
   Reading configurations from h5FileRoot Sc.log.s007
  QMCCostFunction is created with 1 threads.
  Using Nonlocal PP in Opt: NonLocalECP
   Number of samples loaded to each thread : 250 
  VMC Eavg = -4.6470e+01
  VMC Evar = 6.7286e-01
  Total weights = 2.5600e+05
  Execution time = 4.8636e-01
  </log>
</opt>
<opt stage="main" walkers="256000">
  <log>

*****************************************
Building overlap and Hamiltonian matrices
*****************************************

Among totally 30 optimized parameters, largest LM parameter change : 6.8513e-02 at parameter 27

******************************************************************************
Init Cost =   6.7286e-01    New Cost =   6.7237e-01  Delta Cost =  -4.9825e-04
******************************************************************************

The new set of parameters is valid. Updating the trial wave function!

*****************************************************************************
Applying the update for shift_i =   1.0000e-02     and shift_s =   3.9062e-03
*****************************************************************************
  Execution time = 3.3993e+00
  </log>
  <optVariables href="Sc.log.s007.opt.xml">
uu_0 2.9812e-01 1 1  ON 0
uu_1 7.8850e-02 1 1  ON 1
uu_2 -2.2178e-02 1 1  ON 2
uu_3 -8.2547e-02 1 1  ON 3
uu_4 -1.1199e-01 1 1  ON 4
uu_5 -1.3063e-01 1 1  ON 5
uu_6 -1.2328e-01 1 1  ON 6
uu_7 -9.4886e-02 1 1  ON 7
uu_8 -3.4231e-02 1 1  ON 8
uu_9 2.3200e-02 1 1  ON 9
ud_0 5.2637e-01 1 1  ON 10
ud_1 2.1731e-01 1 1  ON 11
ud_2 1.0529e-01 1 1  ON 12
ud_3 2.4973e-02 1 1  ON 13
ud_4 -1.9693e-02 1 1  ON 14
ud_5 -6.2430e-02 1 1  ON 15
ud_6 -8.7627e-02 1 1  ON 16
ud_7 -1.0201e-01 1 1  ON 17
ud_8 -8.6814e-02 1 1  ON 18
ud_9 -6.7428e-02 1 1  ON 19
eSc_0 -1.8647e+00 1 1  ON 20
eSc_1 -1.2124e+00 1 1  ON 21
eSc_2 -4.4070e-01 1 1  ON 22
eSc_3 9.7247e-02 1 1  ON 23
eSc_4 5.1030e-01 1 1  ON 24
eSc_5 7.6817e-01 1 1  ON 25
eSc_6 8.7894e-01 1 1  ON 26
eSc_7 7.3965e-01 1 1  ON 27
eSc_8 4.1155e-01 1 1  ON 28
eSc_9 1.0065e-01 1 1  ON 29
  </optVariables>
   Restore the number of walkers to 1, removing 0 walkers.
</opt>
</optimization-report>
  QMC Execution time = 3.4097e+00 secs 
  Reusing QMCFixedSampleLinearOptimize
 Using QMCCostFunction::QMCCostFunction

=========================================================
  Start QMCFixedSampleLinearOptimize
  File Root Sc.log.s008 append = no 
=========================================================
  Skip QMCDriver::putQMCInfo 
  Resetting Properties of the walkers 1 x 13

=========================================================
  Start VMC
  File Root Sc.log.s008 append = no 
=========================================================
Using existing walkers 
  Resetting Properties of the walkers 1 x 13

<vmc function="put">
  qmc_counter=2  my_counter=7
  time step      = 1.5000e-01
  blocks         = 200
  steps          = 2
  substeps       = 5
  current        = 0
  target samples = 2.5600e+05
  walkers/mpi    = 1

  stepsbetweensamples = 1
<parameter name="blocks" condition="int">200</parameter>
<parameter name="blocks_between_recompute" condition="int">0</parameter>
<parameter name="check_properties" condition="int">100</parameter>
<parameter name="checkproperties" condition="int">100</parameter>
<parameter name="current" condition="int">0</parameter>
<parameter name="dmcwalkersperthread" condition="real">2.5000e+02</parameter>
<parameter name="maxcpusecs" condition="real">3.6000e+05</parameter>
<parameter name="record_configs" condition="int">0</parameter>
<parameter name="record_walkers" condition="int">1</parameter>
<parameter name="recordconfigs" condition="int">0</parameter>
<parameter name="recordwalkers" condition="int">1</parameter>
<parameter name="rewind" condition="int">0</parameter>
<parameter name="samples" condition="real">2.5600e+05</parameter>
<parameter name="samplesperthread" condition="real">2.5000e+02</parameter>
<parameter name="steps" condition="int">2</parameter>
<parameter name="stepsbetweensamples" condition="int">1</parameter>
<parameter name="store_configs" condition="int">0</parameter>
<parameter name="storeconfigs" condition="int">0</parameter>
<parameter name="sub_steps" condition="int">5</parameter>
<parameter name="substeps" condition="int">5</parameter>
<parameter name="tau" condition="au">1.5000e-01</parameter>
<parameter name="time_step" condition="au">1.5000e-01</parameter>
<parameter name="timestep" condition="au">1.5000e-01</parameter>
<parameter name="use_drift" condition="string">no</parameter>
<parameter name="usedrift" condition="string">no</parameter>
<parameter name="walkers" condition="int">1</parameter>
<parameter name="warmup_steps" condition="int">0</parameter>
<parameter name="warmupsteps" condition="int">0</parameter>
  DumpConfig==false Nothing (configurations, state) will be saved.
  Walker Samples are dumped every 1 steps.
</vmc>
  EstimatorManagerBase::add replace LocalEnergy estimator.
  EstimatorManagerBase::add replace LocalEnergy estimator.
<optimization-report>
<vmc stage="main" blocks="200">
  Cannot make clones again. Use existing 1 clones
  Initial partition of walkers 0 1 
  Using Particle by Particle moves
  Walker moves without drift
  Total Sample Size   =256000
  Walker distribution on root = 0 1 
  Using Locality Approximation
===== Memory Usage after the buffer registration =====
Available memory on node 0, free + buffers : 80588 MB
Memory footprint by rank 0 on node 0       : 86 MB
==================================================
====================================================
  SimpleFixedNodeBranch::finalize after a VMC block
    QMC counter        = 8
    time step          = 0.15
    reference energy   = -46.4709
    reference variance = 0.744663
====================================================
  Execution time = 2.3856e+00
</vmc>
<opt stage="setup">
  <log>
   Reading configurations from h5FileRoot Sc.log.s008
  QMCCostFunction is created with 1 threads.
  Using Nonlocal PP in Opt: NonLocalECP
   Number of samples loaded to each thread : 250 
  VMC Eavg = -4.6469e+01
  VMC Evar = 6.7804e-01
  Total weights = 2.5600e+05
  Execution time = 4.4893e-01
  </log>
</opt>
<opt stage="main" walkers="256000">
  <log>

*****************************************
Building overlap and Hamiltonian matrices
*****************************************

Among totally 30 optimized parameters, largest LM parameter change : 6.8344e-02 at parameter 28

******************************************************************************
Init Cost =   6.7804e-01    New Cost =   6.7931e-01  Delta Cost =   1.2732e-03
******************************************************************************

The new set of parameters is valid. Updating the trial wave function!

*****************************************************************************
Applying the update for shift_i =   1.0000e-02     and shift_s =   3.9062e-03
*****************************************************************************
  Execution time = 3.2412e+00
  </log>
  <optVariables href="Sc.log.s008.opt.xml">
uu_0 3.0337e-01 1 1  ON 0
uu_1 8.3255e-02 1 1  ON 1
uu_2 -1.9020e-02 1 1  ON 2
uu_3 -8.1672e-02 1 1  ON 3
uu_4 -1.1240e-01 1 1  ON 4
uu_5 -1.3459e-01 1 1  ON 5
uu_6 -1.3106e-01 1 1  ON 6
uu_7 -1.0591e-01 1 1  ON 7
uu_8 -4.6057e-02 1 1  ON 8
uu_9 1.0290e-02 1 1  ON 9
ud_0 5.3512e-01 1 1  ON 10
ud_1 2.2624e-01 1 1  ON 11
ud_2 1.1464e-01 1 1  ON 12
ud_3 3.3590e-02 1 1  ON 13
ud_4 -1.1884e-02 1 1  ON 14
ud_5 -5.6602e-02 1 1  ON 15
ud_6 -8.2842e-02 1 1  ON 16
ud_7 -9.6423e-02 1 1  ON 17
ud_8 -8.3151e-02 1 1  ON 18
ud_9 -6.5832e-02 1 1  ON 19
eSc_0 -1.9147e+00 1 1  ON 20
eSc_1 -1.2595e+00 1 1  ON 21
eSc_2 -4.8170e-01 1 1  ON 22
eSc_3 6.6158e-02 1 1  ON 23
eSc_4 4.9315e-01 1 1  ON 24
eSc_5 7.6631e-01 1 1  ON 25
eSc_6 9.0694e-01 1 1  ON 26
eSc_7 8.0149e-01 1 1  ON 27
eSc_8 4.7990e-01 1 1  ON 28
eSc_9 1.2538e-01 1 1  ON 29
  </optVariables>
   Restore the number of walkers to 1, removing 0 walkers.
</opt>
</optimization-report>
  QMC Execution time = 3.2522e+00 secs 
  Reusing QMCFixedSampleLinearOptimize
 Using QMCCostFunction::QMCCostFunction

=========================================================
  Start QMCFixedSampleLinearOptimize
  File Root Sc.log.s009 append = no 
=========================================================
  Skip QMCDriver::putQMCInfo 
  Resetting Properties of the walkers 1 x 13

=========================================================
  Start VMC
  File Root Sc.log.s009 append = no 
=========================================================
Using existing walkers 
  Resetting Properties of the walkers 1 x 13

<vmc function="put">
  qmc_counter=3  my_counter=8
  time step      = 1.5000e-01
  blocks         = 200
  steps          = 2
  substeps       = 5
  current        = 0
  target samples = 2.5600e+05
  walkers/mpi    = 1

  stepsbetweensamples = 1
<parameter name="blocks" condition="int">200</parameter>
<parameter name="blocks_between_recompute" condition="int">0</parameter>
<parameter name="check_properties" condition="int">100</parameter>
<parameter name="checkproperties" condition="int">100</parameter>
<parameter name="current" condition="int">0</parameter>
<parameter name="dmcwalkersperthread" condition="real">2.5000e+02</parameter>
<parameter name="maxcpusecs" condition="real">3.6000e+05</parameter>
<parameter name="record_configs" condition="int">0</parameter>
<parameter name="record_walkers" condition="int">1</parameter>
<parameter name="recordconfigs" condition="int">0</parameter>
<parameter name="recordwalkers" condition="int">1</parameter>
<parameter name="rewind" condition="int">0</parameter>
<parameter name="samples" condition="real">2.5600e+05</parameter>
<parameter name="samplesperthread" condition="real">2.5000e+02</parameter>
<parameter name="steps" condition="int">2</parameter>
<parameter name="stepsbetweensamples" condition="int">1</parameter>
<parameter name="store_configs" condition="int">0</parameter>
<parameter name="storeconfigs" condition="int">0</parameter>
<parameter name="sub_steps" condition="int">5</parameter>
<parameter name="substeps" condition="int">5</parameter>
<parameter name="tau" condition="au">1.5000e-01</parameter>
<parameter name="time_step" condition="au">1.5000e-01</parameter>
<parameter name="timestep" condition="au">1.5000e-01</parameter>
<parameter name="use_drift" condition="string">no</parameter>
<parameter name="usedrift" condition="string">no</parameter>
<parameter name="walkers" condition="int">1</parameter>
<parameter name="warmup_steps" condition="int">0</parameter>
<parameter name="warmupsteps" condition="int">0</parameter>
  DumpConfig==false Nothing (configurations, state) will be saved.
  Walker Samples are dumped every 1 steps.
</vmc>
  EstimatorManagerBase::add replace LocalEnergy estimator.
  EstimatorManagerBase::add replace LocalEnergy estimator.
<optimization-report>
<vmc stage="main" blocks="200">
  Cannot make clones again. Use existing 1 clones
  Initial partition of walkers 0 1 
  Using Particle by Particle moves
  Walker moves without drift
  Total Sample Size   =256000
  Walker distribution on root = 0 1 
  Using Locality Approximation
===== Memory Usage after the buffer registration =====
Available memory on node 0, free + buffers : 80587 MB
Memory footprint by rank 0 on node 0       : 88 MB
==================================================
====================================================
  SimpleFixedNodeBranch::finalize after a VMC block
    QMC counter        = 9
    time step          = 0.15
    reference energy   = -46.4329
    reference variance = 0.652079
====================================================
  Execution time = 2.3081e+00
</vmc>
<opt stage="setup">
  <log>
   Reading configurations from h5FileRoot Sc.log.s009
  QMCCostFunction is created with 1 threads.
  Using Nonlocal PP in Opt: NonLocalECP
   Number of samples loaded to each thread : 250 
  VMC Eavg = -4.6469e+01
  VMC Evar = 6.7849e-01
  Total weights = 2.5600e+05
  Execution time = 4.1536e-01
  </log>
</opt>
<opt stage="main" walkers="256000">
  <log>

*****************************************
Building overlap and Hamiltonian matrices
*****************************************

Among totally 30 optimized parameters, largest LM parameter change : 5.7198e-02 at parameter 27

******************************************************************************
Init Cost =   6.7849e-01    New Cost =   6.8253e-01  Delta Cost =   4.0350e-03
******************************************************************************

The new set of parameters is valid. Updating the trial wave function!

*****************************************************************************
Applying the update for shift_i =   1.0000e-02     and shift_s =   3.9062e-03
*****************************************************************************
  Execution time = 3.1105e+00
  </log>
  <optVariables href="Sc.log.s009.opt.xml">
uu_0 3.0257e-01 1 1  ON 0
uu_1 8.1360e-02 1 1  ON 1
uu_2 -2.2209e-02 1 1  ON 2
uu_3 -8.3860e-02 1 1  ON 3
uu_4 -1.1516e-01 1 1  ON 4
uu_5 -1.3553e-01 1 1  ON 5
uu_6 -1.3338e-01 1 1  ON 6
uu_7 -1.0957e-01 1 1  ON 7
uu_8 -5.3323e-02 1 1  ON 8
uu_9 9.4960e-03 1 1  ON 9
ud_0 5.4445e-01 1 1  ON 10
ud_1 2.3483e-01 1 1  ON 11
ud_2 1.2322e-01 1 1  ON 12
ud_3 4.1650e-02 1 1  ON 13
ud_4 -5.5963e-03 1 1  ON 14
ud_5 -5.1768e-02 1 1  ON 15
ud_6 -8.2284e-02 1 1  ON 16
ud_7 -9.9483e-02 1 1  ON 17
ud_8 -8.6919e-02 1 1  ON 18
ud_9 -6.1525e-02 1 1  ON 19
eSc_0 -1.9585e+00 1 1  ON 20
eSc_1 -1.2992e+00 1 1  ON 21
eSc_2 -5.2150e-01 1 1  ON 22
eSc_3 3.1744e-02 1 1  ON 23
eSc_4 4.7658e-01 1 1  ON 24
eSc_5 7.6945e-01 1 1  ON 25
eSc_6 9.3463e-01 1 1  ON 26
eSc_7 8.5868e-01 1 1  ON 27
eSc_8 5.3639e-01 1 1  ON 28
eSc_9 1.5307e-01 1 1  ON 29
  </optVariables>
   Restore the number of walkers to 1, removing 0 walkers.
</opt>
</optimization-report>
  QMC Execution time = 3.1200e+00 secs 
  Reusing QMCFixedSampleLinearOptimize
 Using QMCCostFunction::QMCCostFunction

=========================================================
  Start QMCFixedSampleLinearOptimize
  File Root Sc.log.s010 append = no 
=========================================================
  Skip QMCDriver::putQMCInfo 
  Resetting Properties of the walkers 1 x 13

=========================================================
  Start VMC
  File Root Sc.log.s010 append = no 
=========================================================
Using existing walkers 
  Resetting Properties of the walkers 1 x 13

<vmc function="put">
  qmc_counter=4  my_counter=9
  time step      = 1.5000e-01
  blocks         = 200
  steps          = 2
  substeps       = 5
  current        = 0
  target samples = 2.5600e+05
  walkers/mpi    = 1

  stepsbetweensamples = 1
<parameter name="blocks" condition="int">200</parameter>
<parameter name="blocks_between_recompute" condition="int">0</parameter>
<parameter name="check_properties" condition="int">100</parameter>
<parameter name="checkproperties" condition="int">100</parameter>
<parameter name="current" condition="int">0</parameter>
<parameter name="dmcwalkersperthread" condition="real">2.5000e+02</parameter>
<parameter name="maxcpusecs" condition="real">3.6000e+05</parameter>
<parameter name="record_configs" condition="int">0</parameter>
<parameter name="record_walkers" condition="int">1</parameter>
<parameter name="recordconfigs" condition="int">0</parameter>
<parameter name="recordwalkers" condition="int">1</parameter>
<parameter name="rewind" condition="int">0</parameter>
<parameter name="samples" condition="real">2.5600e+05</parameter>
<parameter name="samplesperthread" condition="real">2.5000e+02</parameter>
<parameter name="steps" condition="int">2</parameter>
<parameter name="stepsbetweensamples" condition="int">1</parameter>
<parameter name="store_configs" condition="int">0</parameter>
<parameter name="storeconfigs" condition="int">0</parameter>
<parameter name="sub_steps" condition="int">5</parameter>
<parameter name="substeps" condition="int">5</parameter>
<parameter name="tau" condition="au">1.5000e-01</parameter>
<parameter name="time_step" condition="au">1.5000e-01</parameter>
<parameter name="timestep" condition="au">1.5000e-01</parameter>
<parameter name="use_drift" condition="string">no</parameter>
<parameter name="usedrift" condition="string">no</parameter>
<parameter name="walkers" condition="int">1</parameter>
<parameter name="warmup_steps" condition="int">0</parameter>
<parameter name="warmupsteps" condition="int">0</parameter>
  DumpConfig==false Nothing (configurations, state) will be saved.
  Walker Samples are dumped every 1 steps.
</vmc>
  EstimatorManagerBase::add replace LocalEnergy estimator.
  EstimatorManagerBase::add replace LocalEnergy estimator.
<optimization-report>
<vmc stage="main" blocks="200">
  Cannot make clones again. Use existing 1 clones
  Initial partition of walkers 0 1 
  Using Particle by Particle moves
  Walker moves without drift
  Total Sample Size   =256000
  Walker distribution on root = 0 1 
  Using Locality Approximation
===== Memory Usage after the buffer registration =====
Available memory on node 0, free + buffers : 80585 MB
Memory footprint by rank 0 on node 0       : 90 MB
==================================================
====================================================
  SimpleFixedNodeBranch::finalize after a VMC block
    QMC counter        = 10
    time step          = 0.15
    reference energy   = -46.4762
    reference variance = 0.559273
====================================================
  Execution time = 2.6570e+00
</vmc>
<opt stage="setup">
  <log>
   Reading configurations from h5FileRoot Sc.log.s010
  QMCCostFunction is created with 1 threads.
  Using Nonlocal PP in Opt: NonLocalECP
   Number of samples loaded to each thread : 250 
  VMC Eavg = -4.6469e+01
  VMC Evar = 6.6998e-01
  Total weights = 2.5600e+05
  Execution time = 3.9859e-01
  </log>
</opt>
<opt stage="main" walkers="256000">
  <log>

*****************************************
Building overlap and Hamiltonian matrices
*****************************************

Among totally 30 optimized parameters, largest LM parameter change : 6.4290e-02 at parameter 28

******************************************************************************
Init Cost =   6.6998e-01    New Cost =   6.6952e-01  Delta Cost =  -4.6199e-04
******************************************************************************

The new set of parameters is valid. Updating the trial wave function!

*****************************************************************************
Applying the update for shift_i =   1.0000e-02     and shift_s =   3.9062e-03
*****************************************************************************
  Execution time = 3.4209e+00
  </log>
  <optVariables href="Sc.log.s010.opt.xml">
uu_0 2.9702e-01 1 1  ON 0
uu_1 7.7016e-02 1 1  ON 1
uu_2 -2.6193e-02 1 1  ON 2
uu_3 -8.8490e-02 1 1  ON 3
uu_4 -1.2136e-01 1 1  ON 4
uu_5 -1.4291e-01 1 1  ON 5
uu_6 -1.4078e-01 1 1  ON 6
uu_7 -1.1760e-01 1 1  ON 7
uu_8 -6.1238e-02 1 1  ON 8
uu_9 3.1375e-03 1 1  ON 9
ud_0 5.5303e-01 1 1  ON 10
ud_1 2.4343e-01 1 1  ON 11
ud_2 1.3108e-01 1 1  ON 12
ud_3 4.9667e-02 1 1  ON 13
ud_4 1.4215e-03 1 1  ON 14
ud_5 -4.6452e-02 1 1  ON 15
ud_6 -7.9951e-02 1 1  ON 16
ud_7 -9.8091e-02 1 1  ON 17
ud_8 -8.8341e-02 1 1  ON 18
ud_9 -6.5209e-02 1 1  ON 19
eSc_0 -2.0007e+00 1 1  ON 20
eSc_1 -1.3423e+00 1 1  ON 21
eSc_2 -5.5779e-01 1 1  ON 22
eSc_3 1.0130e-03 1 1  ON 23
eSc_4 4.5941e-01 1 1  ON 24
eSc_5 7.6969e-01 1 1  ON 25
eSc_6 9.5082e-01 1 1  ON 26
eSc_7 9.0854e-01 1 1  ON 27
eSc_8 6.0068e-01 1 1  ON 28
eSc_9 1.8326e-01 1 1  ON 29
  </optVariables>
   Restore the number of walkers to 1, removing 0 walkers.
</opt>
</optimization-report>
  QMC Execution time = 3.4303e+00 secs 
Loop execution max-interations = 10
  Reusing QMCFixedSampleLinearOptimize
 Using QMCCostFunction::QMCCostFunction

=========================================================
  Start QMCFixedSampleLinearOptimize
  File Root Sc.log.s011 append = no 
=========================================================
  Skip QMCDriver::putQMCInfo 
  Resetting Properties of the walkers 1 x 13

=========================================================
  Start VMC
  File Root Sc.log.s011 append = no 
=========================================================
  Using the current 1 walkers.
  Total number of walkers: 1.0240e+03
  Total weight: 1.0240e+03
  Resetting Properties of the walkers 1 x 13

<vmc function="put">
  qmc_counter=0  my_counter=10
  time step      = 1.5000e-01
  blocks         = 200
  steps          = 3
  substeps       = 5
  current        = 0
  target samples = 5.1200e+05
  walkers/mpi    = 1

  stepsbetweensamples = 1
<parameter name="blocks" condition="int">200</parameter>
<parameter name="blocks_between_recompute" condition="int">0</parameter>
<parameter name="check_properties" condition="int">100</parameter>
<parameter name="checkproperties" condition="int">100</parameter>
<parameter name="current" condition="int">0</parameter>
<parameter name="dmcwalkersperthread" condition="real">5.0000e+02</parameter>
<parameter name="maxcpusecs" condition="real">3.6000e+05</parameter>
<parameter name="record_configs" condition="int">0</parameter>
<parameter name="record_walkers" condition="int">1</parameter>
<parameter name="recordconfigs" condition="int">0</parameter>
<parameter name="recordwalkers" condition="int">1</parameter>
<parameter name="rewind" condition="int">0</parameter>
<parameter name="samples" condition="real">5.1200e+05</parameter>
<parameter name="samplesperthread" condition="real">5.0000e+02</parameter>
<parameter name="steps" condition="int">3</parameter>
<parameter name="stepsbetweensamples" condition="int">1</parameter>
<parameter name="store_configs" condition="int">0</parameter>
<parameter name="storeconfigs" condition="int">0</parameter>
<parameter name="sub_steps" condition="int">5</parameter>
<parameter name="substeps" condition="int">5</parameter>
<parameter name="tau" condition="au">1.5000e-01</parameter>
<parameter name="time_step" condition="au">1.5000e-01</parameter>
<parameter name="timestep" condition="au">1.5000e-01</parameter>
<parameter name="use_drift" condition="string">no</parameter>
<parameter name="usedrift" condition="string">no</parameter>
<parameter name="walkers" condition="int">1</parameter>
<parameter name="warmup_steps" condition="int">0</parameter>
<parameter name="warmupsteps" condition="int">0</parameter>
  DumpConfig==false Nothing (configurations, state) will be saved.
  Walker Samples are dumped every 1 steps.
</vmc>
  EstimatorManagerBase::add replace LocalEnergy estimator.
  EstimatorManagerBase::add replace LocalEnergy estimator.
<optimization-report>
<vmc stage="main" blocks="200">
  Cannot make clones again. Use existing 1 clones
  Initial partition of walkers 0 1 
  Using Particle by Particle moves
  Walker moves without drift
  Total Sample Size   =512000
  Walker distribution on root = 0 1 
  Using Locality Approximation
===== Memory Usage after the buffer registration =====
Available memory on node 0, free + buffers : 80583 MB
Memory footprint by rank 0 on node 0       : 91 MB
==================================================
====================================================
  SimpleFixedNodeBranch::finalize after a VMC block
    QMC counter        = 11
    time step          = 0.15
    reference energy   = -46.4538
    reference variance = 0.800929
====================================================
  Execution time = 3.1930e+00
</vmc>
<opt stage="setup">
  <log>
   Reading configurations from h5FileRoot Sc.log.s011
  QMCCostFunction is created with 1 threads.
  Using Nonlocal PP in Opt: NonLocalECP
   Number of samples loaded to each thread : 500 
  VMC Eavg = -4.6470e+01
  VMC Evar = 6.8039e-01
  Total weights = 5.1200e+05
  Execution time = 7.5019e-01
  </log>
</opt>
<opt stage="main" walkers="512000">
  <log>

*****************************************
Building overlap and Hamiltonian matrices
*****************************************

Among totally 30 optimized parameters, largest LM parameter change : 5.1333e-02 at parameter 28

******************************************************************************
Init Cost =  -4.4113e+01    New Cost =  -4.4113e+01  Delta Cost =  -2.3944e-04
******************************************************************************

The new set of parameters is valid. Updating the trial wave function!

*****************************************************************************
Applying the update for shift_i =   1.0000e-02     and shift_s =   3.9062e-03
*****************************************************************************
  Execution time = 4.6242e+00
  </log>
  <optVariables href="Sc.log.s011.opt.xml">
uu_0 2.9738e-01 1 1  ON 0
uu_1 7.6731e-02 1 1  ON 1
uu_2 -2.6320e-02 1 1  ON 2
uu_3 -9.0088e-02 1 1  ON 3
uu_4 -1.2440e-01 1 1  ON 4
uu_5 -1.4912e-01 1 1  ON 5
uu_6 -1.5222e-01 1 1  ON 6
uu_7 -1.3151e-01 1 1  ON 7
uu_8 -7.8041e-02 1 1  ON 8
uu_9 -2.4591e-03 1 1  ON 9
ud_0 5.5569e-01 1 1  ON 10
ud_1 2.4616e-01 1 1  ON 11
ud_2 1.3340e-01 1 1  ON 12
ud_3 5.1078e-02 1 1  ON 13
ud_4 3.4002e-03 1 1  ON 14
ud_5 -4.4076e-02 1 1  ON 15
ud_6 -7.7647e-02 1 1  ON 16
ud_7 -9.5467e-02 1 1  ON 17
ud_8 -8.4737e-02 1 1  ON 18
ud_9 -6.1368e-02 1 1  ON 19
eSc_0 -2.0399e+00 1 1  ON 20
eSc_1 -1.3796e+00 1 1  ON 21
eSc_2 -5.9341e-01 1 1  ON 22
eSc_3 -2.6964e-02 1 1  ON 23
eSc_4 4.3947e-01 1 1  ON 24
eSc_5 7.7146e-01 1 1  ON 25
eSc_6 9.7249e-01 1 1  ON 26
eSc_7 9.5079e-01 1 1  ON 27
eSc_8 6.5202e-01 1 1  ON 28
eSc_9 2.1624e-01 1 1  ON 29
  </optVariables>
   Restore the number of walkers to 1, removing 0 walkers.
</opt>
</optimization-report>
  QMC Execution time = 4.6340e+00 secs 
  Reusing QMCFixedSampleLinearOptimize
 Using QMCCostFunction::QMCCostFunction

=========================================================
  Start QMCFixedSampleLinearOptimize
  File Root Sc.log.s012 append = no 
=========================================================
  Skip QMCDriver::putQMCInfo 
  Resetting Properties of the walkers 1 x 13

=========================================================
  Start VMC
  File Root Sc.log.s012 append = no 
=========================================================
Using existing walkers 
  Resetting Properties of the walkers 1 x 13

<vmc function="put">
  qmc_counter=1  my_counter=11
  time step      = 1.5000e-01
  blocks         = 200
  steps          = 3
  substeps       = 5
  current        = 0
  target samples = 5.1200e+05
  walkers/mpi    = 1

  stepsbetweensamples = 1
<parameter name="blocks" condition="int">200</parameter>
<parameter name="blocks_between_recompute" condition="int">0</parameter>
<parameter name="check_properties" condition="int">100</parameter>
<parameter name="checkproperties" condition="int">100</parameter>
<parameter name="current" condition="int">0</parameter>
<parameter name="dmcwalkersperthread" condition="real">5.0000e+02</parameter>
<parameter name="maxcpusecs" condition="real">3.6000e+05</parameter>
<parameter name="record_configs" condition="int">0</parameter>
<parameter name="record_walkers" condition="int">1</parameter>
<parameter name="recordconfigs" condition="int">0</parameter>
<parameter name="recordwalkers" condition="int">1</parameter>
<parameter name="rewind" condition="int">0</parameter>
<parameter name="samples" condition="real">5.1200e+05</parameter>
<parameter name="samplesperthread" condition="real">5.0000e+02</parameter>
<parameter name="steps" condition="int">3</parameter>
<parameter name="stepsbetweensamples" condition="int">1</parameter>
<parameter name="store_configs" condition="int">0</parameter>
<parameter name="storeconfigs" condition="int">0</parameter>
<parameter name="sub_steps" condition="int">5</parameter>
<parameter name="substeps" condition="int">5</parameter>
<parameter name="tau" condition="au">1.5000e-01</parameter>
[...]
  <log>
   Reading configurations from h5FileRoot Sc.log.s017
  QMCCostFunction is created with 1 threads.
  Using Nonlocal PP in Opt: NonLocalECP
   Number of samples loaded to each thread : 500 
  VMC Eavg = -4.6471e+01
  VMC Evar = 6.9192e-01
  Total weights = 5.1200e+05
  Execution time = 6.7179e-01
  </log>
</opt>
<opt stage="main" walkers="512000">
  <log>

*****************************************
Building overlap and Hamiltonian matrices
*****************************************

Among totally 30 optimized parameters, largest LM parameter change : 3.3714e-02 at parameter 28

******************************************************************************
Init Cost =  -4.4113e+01    New Cost =  -4.4113e+01  Delta Cost =  -1.3963e-04
******************************************************************************

The new set of parameters is valid. Updating the trial wave function!

*****************************************************************************
Applying the update for shift_i =   1.0000e-02     and shift_s =   3.9062e-03
*****************************************************************************
  Execution time = 4.8100e+00
  </log>
  <optVariables href="Sc.log.s017.opt.xml">
uu_0 2.8885e-01 1 1  ON 0
uu_1 6.8226e-02 1 1  ON 1
uu_2 -3.5814e-02 1 1  ON 2
uu_3 -1.0019e-01 1 1  ON 3
uu_4 -1.3586e-01 1 1  ON 4
uu_5 -1.6407e-01 1 1  ON 5
uu_6 -1.7290e-01 1 1  ON 6
uu_7 -1.6343e-01 1 1  ON 7
uu_8 -1.1839e-01 1 1  ON 8
uu_9 -4.5598e-02 1 1  ON 9
ud_0 5.9998e-01 1 1  ON 10
ud_1 2.9021e-01 1 1  ON 11
ud_2 1.7647e-01 1 1  ON 12
ud_3 9.2163e-02 1 1  ON 13
ud_4 4.0437e-02 1 1  ON 14
ud_5 -1.1399e-02 1 1  ON 15
ud_6 -5.3585e-02 1 1  ON 16
ud_7 -8.4862e-02 1 1  ON 17
ud_8 -8.7147e-02 1 1  ON 18
ud_9 -5.6436e-02 1 1  ON 19
eSc_0 -2.1948e+00 1 1  ON 20
eSc_1 -1.5308e+00 1 1  ON 21
eSc_2 -7.3318e-01 1 1  ON 22
eSc_3 -1.4265e-01 1 1  ON 23
eSc_4 3.5625e-01 1 1  ON 24
eSc_5 7.3266e-01 1 1  ON 25
eSc_6 1.0153e+00 1 1  ON 26
eSc_7 1.0934e+00 1 1  ON 27
eSc_8 8.9200e-01 1 1  ON 28
eSc_9 4.1504e-01 1 1  ON 29
  </optVariables>
   Restore the number of walkers to 1, removing 0 walkers.
</opt>
</optimization-report>
  QMC Execution time = 4.8205e+00 secs 
  Reusing QMCFixedSampleLinearOptimize
 Using QMCCostFunction::QMCCostFunction

=========================================================
  Start QMCFixedSampleLinearOptimize
  File Root Sc.log.s018 append = no 
=========================================================
  Skip QMCDriver::putQMCInfo 
  Resetting Properties of the walkers 1 x 13

=========================================================
  Start VMC
  File Root Sc.log.s018 append = no 
=========================================================
Using existing walkers 
  Resetting Properties of the walkers 1 x 13

<vmc function="put">
  qmc_counter=7  my_counter=17
  time step      = 1.5000e-01
  blocks         = 200
  steps          = 3
  substeps       = 5
  current        = 0
  target samples = 5.1200e+05
  walkers/mpi    = 1

  stepsbetweensamples = 1
<parameter name="blocks" condition="int">200</parameter>
<parameter name="blocks_between_recompute" condition="int">0</parameter>
<parameter name="check_properties" condition="int">100</parameter>
<parameter name="checkproperties" condition="int">100</parameter>
<parameter name="current" condition="int">0</parameter>
<parameter name="dmcwalkersperthread" condition="real">5.0000e+02</parameter>
<parameter name="maxcpusecs" condition="real">3.6000e+05</parameter>
<parameter name="record_configs" condition="int">0</parameter>
<parameter name="record_walkers" condition="int">1</parameter>
<parameter name="recordconfigs" condition="int">0</parameter>
<parameter name="recordwalkers" condition="int">1</parameter>
<parameter name="rewind" condition="int">0</parameter>
<parameter name="samples" condition="real">5.1200e+05</parameter>
<parameter name="samplesperthread" condition="real">5.0000e+02</parameter>
<parameter name="steps" condition="int">3</parameter>
<parameter name="stepsbetweensamples" condition="int">1</parameter>
<parameter name="store_configs" condition="int">0</parameter>
<parameter name="storeconfigs" condition="int">0</parameter>
<parameter name="sub_steps" condition="int">5</parameter>
<parameter name="substeps" condition="int">5</parameter>
<parameter name="tau" condition="au">1.5000e-01</parameter>
<parameter name="time_step" condition="au">1.5000e-01</parameter>
<parameter name="timestep" condition="au">1.5000e-01</parameter>
<parameter name="use_drift" condition="string">no</parameter>
<parameter name="usedrift" condition="string">no</parameter>
<parameter name="walkers" condition="int">1</parameter>
<parameter name="warmup_steps" condition="int">0</parameter>
<parameter name="warmupsteps" condition="int">0</parameter>
  DumpConfig==false Nothing (configurations, state) will be saved.
  Walker Samples are dumped every 1 steps.
</vmc>
  EstimatorManagerBase::add replace LocalEnergy estimator.
  EstimatorManagerBase::add replace LocalEnergy estimator.
<optimization-report>
<vmc stage="main" blocks="200">
  Cannot make clones again. Use existing 1 clones
  Initial partition of walkers 0 1 
  Using Particle by Particle moves
  Walker moves without drift
  Total Sample Size   =512000
  Walker distribution on root = 0 1 
  Using Locality Approximation
===== Memory Usage after the buffer registration =====
Available memory on node 0, free + buffers : 80536 MB
Memory footprint by rank 0 on node 0       : 104 MB
==================================================
====================================================
  SimpleFixedNodeBranch::finalize after a VMC block
    QMC counter        = 18
    time step          = 0.15
    reference energy   = -46.4577
    reference variance = 0.677599
====================================================
  Execution time = 2.5608e+00
</vmc>
<opt stage="setup">
  <log>
   Reading configurations from h5FileRoot Sc.log.s018
  QMCCostFunction is created with 1 threads.
  Using Nonlocal PP in Opt: NonLocalECP
   Number of samples loaded to each thread : 500 
  VMC Eavg = -4.6471e+01
  VMC Evar = 6.8454e-01
  Total weights = 5.1200e+05
  Execution time = 6.6491e-01
  </log>
</opt>
<opt stage="main" walkers="512000">
  <log>

*****************************************
Building overlap and Hamiltonian matrices
*****************************************

Among totally 30 optimized parameters, largest LM parameter change : 3.3587e-02 at parameter 28

******************************************************************************
Init Cost =  -4.4113e+01    New Cost =  -4.4113e+01  Delta Cost =  -1.1214e-04
******************************************************************************

The new set of parameters is valid. Updating the trial wave function!

*****************************************************************************
Applying the update for shift_i =   1.0000e-02     and shift_s =   3.9062e-03
*****************************************************************************
  Execution time = 3.8653e+00
  </log>
  <optVariables href="Sc.log.s018.opt.xml">
uu_0 2.8765e-01 1 1  ON 0
uu_1 6.6146e-02 1 1  ON 1
uu_2 -3.7667e-02 1 1  ON 2
uu_3 -1.0261e-01 1 1  ON 3
uu_4 -1.3904e-01 1 1  ON 4
uu_5 -1.6761e-01 1 1  ON 5
uu_6 -1.7938e-01 1 1  ON 6
uu_7 -1.7269e-01 1 1  ON 7
uu_8 -1.3028e-01 1 1  ON 8
uu_9 -5.5891e-02 1 1  ON 9
ud_0 6.0558e-01 1 1  ON 10
ud_1 2.9621e-01 1 1  ON 11
ud_2 1.8162e-01 1 1  ON 12
ud_3 9.6908e-02 1 1  ON 13
ud_4 4.4632e-02 1 1  ON 14
ud_5 -8.5527e-03 1 1  ON 15
ud_6 -5.0845e-02 1 1  ON 16
ud_7 -8.6400e-02 1 1  ON 17
ud_8 -9.0011e-02 1 1  ON 18
ud_9 -6.8723e-02 1 1  ON 19
eSc_0 -2.2119e+00 1 1  ON 20
eSc_1 -1.5476e+00 1 1  ON 21
eSc_2 -7.4471e-01 1 1  ON 22
eSc_3 -1.5386e-01 1 1  ON 23
eSc_4 3.4106e-01 1 1  ON 24
eSc_5 7.1724e-01 1 1  ON 25
eSc_6 1.0079e+00 1 1  ON 26
eSc_7 1.1073e+00 1 1  ON 27
eSc_8 9.2558e-01 1 1  ON 28
eSc_9 4.4146e-01 1 1  ON 29
  </optVariables>
   Restore the number of walkers to 1, removing 0 walkers.
</opt>
</optimization-report>
  QMC Execution time = 3.8752e+00 secs 
  Reusing QMCFixedSampleLinearOptimize
 Using QMCCostFunction::QMCCostFunction

=========================================================
  Start QMCFixedSampleLinearOptimize
  File Root Sc.log.s019 append = no 
=========================================================
  Skip QMCDriver::putQMCInfo 
  Resetting Properties of the walkers 1 x 13

=========================================================
  Start VMC
  File Root Sc.log.s019 append = no 
=========================================================
Using existing walkers 
  Resetting Properties of the walkers 1 x 13

<vmc function="put">
  qmc_counter=8  my_counter=18
  time step      = 1.5000e-01
  blocks         = 200
  steps          = 3
  substeps       = 5
  current        = 0
  target samples = 5.1200e+05
  walkers/mpi    = 1

  stepsbetweensamples = 1
<parameter name="blocks" condition="int">200</parameter>
<parameter name="blocks_between_recompute" condition="int">0</parameter>
<parameter name="check_properties" condition="int">100</parameter>
<parameter name="checkproperties" condition="int">100</parameter>
<parameter name="current" condition="int">0</parameter>
<parameter name="dmcwalkersperthread" condition="real">5.0000e+02</parameter>
<parameter name="maxcpusecs" condition="real">3.6000e+05</parameter>
<parameter name="record_configs" condition="int">0</parameter>
<parameter name="record_walkers" condition="int">1</parameter>
<parameter name="recordconfigs" condition="int">0</parameter>
<parameter name="recordwalkers" condition="int">1</parameter>
<parameter name="rewind" condition="int">0</parameter>
<parameter name="samples" condition="real">5.1200e+05</parameter>
<parameter name="samplesperthread" condition="real">5.0000e+02</parameter>
<parameter name="steps" condition="int">3</parameter>
<parameter name="stepsbetweensamples" condition="int">1</parameter>
<parameter name="store_configs" condition="int">0</parameter>
<parameter name="storeconfigs" condition="int">0</parameter>
<parameter name="sub_steps" condition="int">5</parameter>
<parameter name="substeps" condition="int">5</parameter>
<parameter name="tau" condition="au">1.5000e-01</parameter>
<parameter name="time_step" condition="au">1.5000e-01</parameter>
<parameter name="timestep" condition="au">1.5000e-01</parameter>
<parameter name="use_drift" condition="string">no</parameter>
<parameter name="usedrift" condition="string">no</parameter>
<parameter name="walkers" condition="int">1</parameter>
<parameter name="warmup_steps" condition="int">0</parameter>
<parameter name="warmupsteps" condition="int">0</parameter>
  DumpConfig==false Nothing (configurations, state) will be saved.
  Walker Samples are dumped every 1 steps.
</vmc>
  EstimatorManagerBase::add replace LocalEnergy estimator.
  EstimatorManagerBase::add replace LocalEnergy estimator.
<optimization-report>
<vmc stage="main" blocks="200">
  Cannot make clones again. Use existing 1 clones
  Initial partition of walkers 0 1 
  Using Particle by Particle moves
  Walker moves without drift
  Total Sample Size   =512000
  Walker distribution on root = 0 1 
  Using Locality Approximation
===== Memory Usage after the buffer registration =====
Available memory on node 0, free + buffers : 80531 MB
Memory footprint by rank 0 on node 0       : 106 MB
==================================================
====================================================
  SimpleFixedNodeBranch::finalize after a VMC block
    QMC counter        = 19
    time step          = 0.15
    reference energy   = -46.4384
    reference variance = 0.630895
====================================================
  Execution time = 2.5898e+00
</vmc>
<opt stage="setup">
  <log>
   Reading configurations from h5FileRoot Sc.log.s019
  QMCCostFunction is created with 1 threads.
  Using Nonlocal PP in Opt: NonLocalECP
   Number of samples loaded to each thread : 500 
  VMC Eavg = -4.6470e+01
  VMC Evar = 6.9341e-01
  Total weights = 5.1200e+05
  Execution time = 6.6778e-01
  </log>
</opt>
<opt stage="main" walkers="512000">
  <log>

*****************************************
Building overlap and Hamiltonian matrices
*****************************************

Among totally 30 optimized parameters, largest LM parameter change : 3.4775e-02 at parameter 28

******************************************************************************
Init Cost =  -4.4112e+01    New Cost =  -4.4112e+01  Delta Cost =  -2.0862e-04
******************************************************************************

The new set of parameters is valid. Updating the trial wave function!

*****************************************************************************
Applying the update for shift_i =   1.0000e-02     and shift_s =   3.9062e-03
*****************************************************************************
  Execution time = 3.9113e+00
  </log>
  <optVariables href="Sc.log.s019.opt.xml">
uu_0 2.8734e-01 1 1  ON 0
uu_1 6.6581e-02 1 1  ON 1
uu_2 -3.7335e-02 1 1  ON 2
uu_3 -1.0224e-01 1 1  ON 3
uu_4 -1.3889e-01 1 1  ON 4
uu_5 -1.6840e-01 1 1  ON 5
uu_6 -1.7702e-01 1 1  ON 6
uu_7 -1.7206e-01 1 1  ON 7
uu_8 -1.2900e-01 1 1  ON 8
uu_9 -5.7387e-02 1 1  ON 9
ud_0 6.0878e-01 1 1  ON 10
ud_1 2.9985e-01 1 1  ON 11
ud_2 1.8619e-01 1 1  ON 12
ud_3 1.0207e-01 1 1  ON 13
ud_4 5.0313e-02 1 1  ON 14
ud_5 -2.6374e-03 1 1  ON 15
ud_6 -4.5733e-02 1 1  ON 16
ud_7 -7.9218e-02 1 1  ON 17
ud_8 -8.6466e-02 1 1  ON 18
ud_9 -6.6906e-02 1 1  ON 19
eSc_0 -2.2225e+00 1 1  ON 20
eSc_1 -1.5593e+00 1 1  ON 21
eSc_2 -7.6194e-01 1 1  ON 22
eSc_3 -1.7173e-01 1 1  ON 23
eSc_4 3.3067e-01 1 1  ON 24
eSc_5 7.0777e-01 1 1  ON 25
eSc_6 1.0017e+00 1 1  ON 26
eSc_7 1.1224e+00 1 1  ON 27
eSc_8 9.6036e-01 1 1  ON 28
eSc_9 4.6858e-01 1 1  ON 29
  </optVariables>
   Restore the number of walkers to 1, removing 0 walkers.
</opt>
</optimization-report>
  QMC Execution time = 3.9217e+00 secs 
  Reusing QMCFixedSampleLinearOptimize
 Using QMCCostFunction::QMCCostFunction

=========================================================
  Start QMCFixedSampleLinearOptimize
  File Root Sc.log.s020 append = no 
=========================================================
  Skip QMCDriver::putQMCInfo 
  Resetting Properties of the walkers 1 x 13

=========================================================
  Start VMC
  File Root Sc.log.s020 append = no 
=========================================================
Using existing walkers 
  Resetting Properties of the walkers 1 x 13

<vmc function="put">
  qmc_counter=9  my_counter=19
  time step      = 1.5000e-01
  blocks         = 200
  steps          = 3
  substeps       = 5
  current        = 0
  target samples = 5.1200e+05
  walkers/mpi    = 1

  stepsbetweensamples = 1
<parameter name="blocks" condition="int">200</parameter>
<parameter name="blocks_between_recompute" condition="int">0</parameter>
<parameter name="check_properties" condition="int">100</parameter>
<parameter name="checkproperties" condition="int">100</parameter>
<parameter name="current" condition="int">0</parameter>
<parameter name="dmcwalkersperthread" condition="real">5.0000e+02</parameter>
<parameter name="maxcpusecs" condition="real">3.6000e+05</parameter>
<parameter name="record_configs" condition="int">0</parameter>
<parameter name="record_walkers" condition="int">1</parameter>
<parameter name="recordconfigs" condition="int">0</parameter>
<parameter name="recordwalkers" condition="int">1</parameter>
<parameter name="rewind" condition="int">0</parameter>
<parameter name="samples" condition="real">5.1200e+05</parameter>
<parameter name="samplesperthread" condition="real">5.0000e+02</parameter>
<parameter name="steps" condition="int">3</parameter>
<parameter name="stepsbetweensamples" condition="int">1</parameter>
<parameter name="store_configs" condition="int">0</parameter>
<parameter name="storeconfigs" condition="int">0</parameter>
<parameter name="sub_steps" condition="int">5</parameter>
<parameter name="substeps" condition="int">5</parameter>
<parameter name="tau" condition="au">1.5000e-01</parameter>
<parameter name="time_step" condition="au">1.5000e-01</parameter>
<parameter name="timestep" condition="au">1.5000e-01</parameter>
<parameter name="use_drift" condition="string">no</parameter>
<parameter name="usedrift" condition="string">no</parameter>
<parameter name="walkers" condition="int">1</parameter>
<parameter name="warmup_steps" condition="int">0</parameter>
<parameter name="warmupsteps" condition="int">0</parameter>
  DumpConfig==false Nothing (configurations, state) will be saved.
  Walker Samples are dumped every 1 steps.
</vmc>
  EstimatorManagerBase::add replace LocalEnergy estimator.
  EstimatorManagerBase::add replace LocalEnergy estimator.
<optimization-report>
<vmc stage="main" blocks="200">
  Cannot make clones again. Use existing 1 clones
  Initial partition of walkers 0 1 
  Using Particle by Particle moves
  Walker moves without drift
  Total Sample Size   =512000
  Walker distribution on root = 0 1 
  Using Locality Approximation
===== Memory Usage after the buffer registration =====
Available memory on node 0, free + buffers : 80529 MB
Memory footprint by rank 0 on node 0       : 108 MB
==================================================
====================================================
  SimpleFixedNodeBranch::finalize after a VMC block
    QMC counter        = 20
    time step          = 0.15
    reference energy   = -46.4716
    reference variance = 0.569988
====================================================
  Execution time = 2.6772e+00
</vmc>
<opt stage="setup">
  <log>
   Reading configurations from h5FileRoot Sc.log.s020
  QMCCostFunction is created with 1 threads.
  Using Nonlocal PP in Opt: NonLocalECP
   Number of samples loaded to each thread : 500 
  VMC Eavg = -4.6470e+01
  VMC Evar = 6.8711e-01
  Total weights = 5.1200e+05
  Execution time = 6.6365e-01
  </log>
</opt>
<opt stage="main" walkers="512000">
  <log>

*****************************************
Building overlap and Hamiltonian matrices
*****************************************

Among totally 30 optimized parameters, largest LM parameter change : 2.9126e-02 at parameter 29

******************************************************************************
Init Cost =  -4.4112e+01    New Cost =  -4.4112e+01  Delta Cost =  -3.7684e-05
******************************************************************************

The new set of parameters is valid. Updating the trial wave function!

*****************************************************************************
Applying the update for shift_i =   1.0000e-02     and shift_s =   3.9062e-03
*****************************************************************************
  Execution time = 3.9818e+00
  </log>
  <optVariables href="Sc.log.s020.opt.xml">
uu_0 2.8658e-01 1 1  ON 0
uu_1 6.5756e-02 1 1  ON 1
uu_2 -3.8332e-02 1 1  ON 2
uu_3 -1.0343e-01 1 1  ON 3
uu_4 -1.4061e-01 1 1  ON 4
uu_5 -1.6921e-01 1 1  ON 5
uu_6 -1.8173e-01 1 1  ON 6
uu_7 -1.7871e-01 1 1  ON 7
uu_8 -1.4489e-01 1 1  ON 8
uu_9 -6.2912e-02 1 1  ON 9
ud_0 6.1105e-01 1 1  ON 10
ud_1 3.0186e-01 1 1  ON 11
ud_2 1.8771e-01 1 1  ON 12
ud_3 1.0429e-01 1 1  ON 13
ud_4 5.3022e-02 1 1  ON 14
ud_5 1.2513e-04 1 1  ON 15
ud_6 -4.3355e-02 1 1  ON 16
ud_7 -7.6711e-02 1 1  ON 17
ud_8 -8.7491e-02 1 1  ON 18
ud_9 -6.7853e-02 1 1  ON 19
eSc_0 -2.2424e+00 1 1  ON 20
eSc_1 -1.5778e+00 1 1  ON 21
eSc_2 -7.7784e-01 1 1  ON 22
eSc_3 -1.8253e-01 1 1  ON 23
eSc_4 3.1643e-01 1 1  ON 24
eSc_5 7.0147e-01 1 1  ON 25
eSc_6 1.0094e+00 1 1  ON 26
eSc_7 1.1314e+00 1 1  ON 27
eSc_8 9.8189e-01 1 1  ON 28
eSc_9 4.9771e-01 1 1  ON 29
  </optVariables>
   Restore the number of walkers to 1, removing 0 walkers.
</opt>
</optimization-report>
  QMC Execution time = 3.9911e+00 secs 
  Total Execution time = 8.4317e+01 secs

=========================================================
  A new xml input file : Sc.log.s020.cont.xml
TACC:  Shutdown complete. Exiting. 
