TACC:  Starting up job 2983000 
TACC:  Starting parallel tasks... 
  Input file(s): F.log.qmc.in-wfj.xml 

=====================================================
                    QMCPACK 3.6.0

       (c) Copyright 2003-  QMCPACK developers

                    Please cite:
 J. Kim et al. J. Phys. Cond. Mat. 30 195901 (2018)
      https://doi.org/10.1088/1361-648X/aab9c3

  Git branch: develop
  Last git commit: 278b2da505fe49852d465a6e4d7961918d794c87
  Last git commit date: Thu Feb 14 11:22:02 2019 -0500
  Last git commit subject: Merge pull request #1379 from ye-luo/raise-boost-version
=====================================================
  Global options 

  MPI Nodes             = 1024
  MPI Nodes per group   = 1024
  MPI Group ID          = 0
  OMP 1st level threads = 1
  OMP nested threading disabled or only 1 thread on the 2nd level

  Precision used in this calculation, see definitions in the manual:
  Base precision      = double
  Full precision      = double

  Structure-of-arrays (SoA) optimization enabled

  Input XML = F.log.qmc.in-wfj.xml

  Project = F.log
  date    = 2019-02-21 12:29:31 CST
  host    = c444-074.stampede2.tacc.utexas.edu

 Random Number
 -------------
  Offset for the random number seeds based on time: 523

  Range of prime numbers to use as seeds over processors and threads = 3769-13003


 Particle Set 
 ------------
  Name: ion0
  All the species have the same mass 1
  Particle set size: 1

 Particle Set 
 ------------
  Name: e
  All the species have the same mass 1
  Particle set size: 7

 Wavefunction setup: 
 ------------------- 
  Name: psi0
  LCAO: SoaAtomicBasisSet<MultiQuintic,0>

  Distance table for similar particles (A-A):
    source/target: e
    Using structure-of-arrays (SoA) data layout
    Distance computations use open boundary conditions in 3D.


  Distance table for dissimilar particles (A-B):
    source: ion0  target: e
    Using structure-of-arrays (SoA) data layout
    Distance computations use open boundary conditions in 3D.

Reading BasisSet from HDF5 file:F.log.orbs.h5
<input node="atomicBasisSet" name="Gaussian" expandYlm="Gamess" angular="cartesian" elementType="F" normalized="no" type="Numerical" expM="0" />
  AO BasisSet for F
   Angular momentum expanded in cartesian functions x^lx y^ly z^lz according to Gamess
   Grid is created by the input paremters in h5
    Using log grid ri = 1e-06 rf = 100 npts = 1001
   R(n,l,m,s) 0 0 0 0
   R(n,l,m,s) 1 1 0 0
   R(n,l,m,s) 2 0 0 0
   R(n,l,m,s) 3 0 0 0
   R(n,l,m,s) 4 0 0 0
   R(n,l,m,s) 5 1 0 0
   R(n,l,m,s) 6 1 0 0
   R(n,l,m,s) 7 1 0 0
   R(n,l,m,s) 8 2 0 0
   R(n,l,m,s) 9 2 0 0
   R(n,l,m,s) 10 2 0 0
   R(n,l,m,s) 11 3 0 0
   R(n,l,m,s) 12 3 0 0
   R(n,l,m,s) 13 4 0 0
Expanding Ylm (angular function) according to Gamess using cartesian gaussians
Adding 1 cartesian gaussian orbitals for l= 0
Adding 3 cartesian gaussian orbitals for l= 1
Adding 1 cartesian gaussian orbitals for l= 0
Adding 1 cartesian gaussian orbitals for l= 0
Adding 1 cartesian gaussian orbitals for l= 0
Adding 3 cartesian gaussian orbitals for l= 1
Adding 3 cartesian gaussian orbitals for l= 1
Adding 3 cartesian gaussian orbitals for l= 1
Adding 6 cartesian gaussian orbitals for l= 2
Adding 6 cartesian gaussian orbitals for l= 2
Adding 6 cartesian gaussian orbitals for l= 2
Adding 10 cartesian gaussian orbitals for l= 3
Adding 10 cartesian gaussian orbitals for l= 3
Adding 15 cartesian gaussian orbitals for l= 4
  Setting cutoff radius 9.63829

   Maximum Angular Momentum  = 4
   Number of Radial functors = 14
   Basis size                = 69

  Created SPOSet builder named 'LCAOBSet' of type molecularorbital
Reuse SPOSetBuilder "LCAOBSet" type MolecularOrbital
  Building SPOSet '' with '' basis set.
Reuse SPOSetBuilder "LCAOBSet" type MolecularOrbital
  Building SPOSet '' with '' basis set.
  Creating a determinant updet group=0 sposet=updet
  Reusing a SPO set updet
Using DiracDeterminant
Using rank-1 Sherman-Morrison Fahy update

  Creating a determinant downdet group=1 sposet=downdet
  Reusing a SPO set downdet
Using DiracDeterminant
Using rank-1 Sherman-Morrison Fahy update

  FermionWF = SlaterDet
  RadialJastrowBuilder adds a functor with cusp = -0.25
 size = 10 parameters 
 cusp = -0.25
 rcut = 6.5
Parameter     Name      Value
uu_0 0.228246 1 1  ON 0
uu_1 0.109846 1 1  ON 1
uu_2 0.0246525 1 1  ON 2
uu_3 -0.0321576 1 1  ON 3
uu_4 -0.0675224 1 1  ON 4
uu_5 -0.0852386 1 1  ON 5
uu_6 -0.0889231 1 1  ON 6
uu_7 -0.0809191 1 1  ON 7
uu_8 -0.0621327 1 1  ON 8
uu_9 -0.0318539 1 1  ON 9
  RadialJastrowBuilder adds a functor with cusp = -0.5
 size = 10 parameters 
 cusp = -0.5
 rcut = 6.5
Parameter     Name      Value
ud_0 0.349724 1 1  ON 0
ud_1 0.145835 1 1  ON 1
ud_2 0.0300586 1 1  ON 2
ud_3 -0.0411251 1 1  ON 3
ud_4 -0.0838504 1 1  ON 4
ud_5 -0.106077 1 1  ON 5
ud_6 -0.112461 1 1  ON 6
ud_7 -0.103384 1 1  ON 7
ud_8 -0.0808652 1 1  ON 8
ud_9 -0.0481426 1 1  ON 9
 size = 10 parameters 
 cusp = 0
 rcut = 6.5
Parameter     Name      Value
eF_0 -0.68822 1 1  ON 0
eF_1 -0.490566 1 1  ON 1
eF_2 -0.173765 1 1  ON 2
eF_3 0.0818807 1 1  ON 3
eF_4 0.249586 1 1  ON 4
eF_5 0.327165 1 1  ON 5
eF_6 0.330348 1 1  ON 6
eF_7 0.269391 1 1  ON 7
eF_8 0.16087 1 1  ON 8
eF_9 -0.00140008 1 1  ON 9
Expected 26 parameters, but found 0 in PolynomialFunctor3D.
Parameter     Name      Value
uuF_0 0 1 1  ON 0
uuF_1 0 1 1  ON 1
uuF_2 0 1 1  ON 2
uuF_3 0 1 1  ON 3
uuF_4 0 1 1  ON 4
uuF_5 0 1 1  ON 5
uuF_6 0 1 1  ON 6
uuF_7 0 1 1  ON 7
uuF_8 0 1 1  ON 8
uuF_9 0 1 1  ON 9
uuF_10 0 1 1  ON 10
uuF_11 0 1 1  ON 11
uuF_12 0 1 1  ON 12
uuF_13 0 1 1  ON 13
uuF_14 0 1 1  ON 14
uuF_15 0 1 1  ON 15
uuF_16 0 1 1  ON 16
uuF_17 0 1 1  ON 17
uuF_18 0 1 1  ON 18
uuF_19 0 1 1  ON 19
uuF_20 0 1 1  ON 20
uuF_21 0 1 1  ON 21
uuF_22 0 1 1  ON 22
uuF_23 0 1 1  ON 23
uuF_24 0 1 1  ON 24
uuF_25 0 1 1  ON 25
Expected 26 parameters, but found 0 in PolynomialFunctor3D.
Parameter     Name      Value
udF_0 0 1 1  ON 0
udF_1 0 1 1  ON 1
udF_2 0 1 1  ON 2
udF_3 0 1 1  ON 3
udF_4 0 1 1  ON 4
udF_5 0 1 1  ON 5
udF_6 0 1 1  ON 6
udF_7 0 1 1  ON 7
udF_8 0 1 1  ON 8
udF_9 0 1 1  ON 9
udF_10 0 1 1  ON 10
udF_11 0 1 1  ON 11
udF_12 0 1 1  ON 12
udF_13 0 1 1  ON 13
udF_14 0 1 1  ON 14
udF_15 0 1 1  ON 15
udF_16 0 1 1  ON 16
udF_17 0 1 1  ON 17
udF_18 0 1 1  ON 18
udF_19 0 1 1  ON 19
udF_20 0 1 1  ON 20
udF_21 0 1 1  ON 21
udF_22 0 1 1  ON 22
udF_23 0 1 1  ON 23
udF_24 0 1 1  ON 24
udF_25 0 1 1  ON 25
  QMCHamiltonian::addOperator Kinetic to H, physical Hamiltonian 
  QMCHamiltonian::addOperator ElecElec to H, physical Hamiltonian 
QMCHamiltonian::addOperatorType added type coulomb named ElecElec
  CoulombAA for ion0 is not created.  Number of particles == 1 and nonPeriodic

  ECPotential builder for pseudopotential 

  Adding pseudopotential for F
   Linear grid  ri=0 rf=10 npts = 10001
    ECPComponentBuilder::buildSemiLocalAndLocal 
    Assuming Hartree unit
   Number of angular momentum channels 2
   Maximum angular momentum channel 1
   Creating a Linear Grid Rmax=1.03
  Using global grid with delta = 0.001
   Making L=1 a local potential with a radial cutoff of 9.999
    Non-local pseudopotential parameters
    Maximum angular mementum = 0
    Number of non-local channels = 1
       l(0)=0
    Cutoff radius = 1.03
    Spherical grids and weights: 
                        1                 0                 0       0.08333333333
                       -1   1.224646799e-16                 0       0.08333333333
             0.4472135955       0.894427191                 0       0.08333333333
            -0.4472135955      0.7236067977      0.5257311121       0.08333333333
             0.4472135955      0.2763932023      0.8506508084       0.08333333333
            -0.4472135955     -0.2763932023      0.8506508084       0.08333333333
             0.4472135955     -0.7236067977      0.5257311121       0.08333333333
            -0.4472135955      -0.894427191   1.095357397e-16       0.08333333333
             0.4472135955     -0.7236067977     -0.5257311121       0.08333333333
            -0.4472135955     -0.2763932023     -0.8506508084       0.08333333333
             0.4472135955      0.2763932023     -0.8506508084       0.08333333333
            -0.4472135955      0.7236067977     -0.5257311121       0.08333333333
    Maximum cutoff radius 1.03
  QMCHamiltonian::addOperator LocalECP to H, physical Hamiltonian 

  Using NonLocalECP potential 
    Maximum grid on a sphere for NonLocalECPotential: 12
  QMCHamiltonian::addOperator NonLocalECP to H, physical Hamiltonian 
QMCHamiltonian::addOperatorType added type pseudo named PseudoPot

  QMCHamiltonian::add2WalkerProperty added
    4 to P::PropertyList 
    0 to P::Collectables 
    starting Index of the observables in P::PropertyList = 9
ParticleSetPool::randomize 
<init source="ion0" target="e">
</init>
  Initialization Execution time = 0.4701 secs
=========================================================
 Summary of QMC systems 
=========================================================
ParticleSetPool has: 

  ParticleSet e : 0 4 7 

    7

    u -3.7068833894e+00  8.3421239494e-02 -9.1289747833e-01
    u -4.5799740002e-01 -4.4128065396e-01  8.7564404194e-01
    u -1.2189361773e+00  5.8167040191e-01 -6.8156888939e-03
    u  2.2681398120e+00 -2.5066562009e+00  3.2601744613e+00
    d  1.1921806140e+00  1.0075345934e+00  1.8195994980e+00
    d  7.7830544951e-01  1.3739127558e+00  1.5604848307e+00
    d  4.8257115754e-01 -2.4078605638e+00 -3.5681059944e-01

  ParticleSet ion0 : 0 1 

    1

    F  0.0000000000e+00  0.0000000000e+00  0.0000000000e+00

  Hamiltonian h0
  Kinetic         Kinetic energy
  ElecElec        CoulombAA source/target e

  LocalECP        LocalECPotential: ion0
  NonLocalECP     NonLocalECPotential: ion0

=========================================================
  Start VMC
  File Root F.log.s000 append = no 
=========================================================
  Adding 1 walkers to 0 existing sets
  Total number of walkers: 1.0240000000e+03
  Total weight: 1.0240000000e+03
  Resetting Properties of the walkers 1 x 13

<vmc function="put">
  qmc_counter=0  my_counter=0
  time step      = 1.5000000000e-01
  blocks         = 200
  steps          = 1
  substeps       = 5
  current        = 0
  target samples = 1.0240000000e+03
  walkers/mpi    = 1

  stepsbetweensamples = 200
<parameter name="blocks" condition="int">200</parameter>
<parameter name="blocks_between_recompute" condition="int">0</parameter>
<parameter name="check_properties" condition="int">100</parameter>
<parameter name="checkproperties" condition="int">100</parameter>
<parameter name="current" condition="int">0</parameter>
<parameter name="dmcwalkersperthread" condition="real">1.0000000000e+00</parameter>
<parameter name="maxcpusecs" condition="real">3.6000000000e+05</parameter>
<parameter name="record_configs" condition="int">0</parameter>
<parameter name="record_walkers" condition="int">200</parameter>
<parameter name="recordconfigs" condition="int">0</parameter>
<parameter name="recordwalkers" condition="int">200</parameter>
<parameter name="rewind" condition="int">0</parameter>
<parameter name="samples" condition="real">1.0240000000e+03</parameter>
<parameter name="samplesperthread" condition="real">1.0000000000e+00</parameter>
<parameter name="steps" condition="int">1</parameter>
<parameter name="stepsbetweensamples" condition="int">200</parameter>
<parameter name="store_configs" condition="int">0</parameter>
<parameter name="storeconfigs" condition="int">0</parameter>
<parameter name="sub_steps" condition="int">5</parameter>
<parameter name="substeps" condition="int">5</parameter>
<parameter name="tau" condition="au">1.5000000000e-01</parameter>
<parameter name="time_step" condition="au">1.5000000000e-01</parameter>
<parameter name="timestep" condition="au">1.5000000000e-01</parameter>
<parameter name="use_drift" condition="string">no</parameter>
<parameter name="usedrift" condition="string">no</parameter>
<parameter name="walkers" condition="int">1</parameter>
<parameter name="warmup_steps" condition="int">100</parameter>
<parameter name="warmupsteps" condition="int">100</parameter>
  DumpConfig==false Nothing (configurations, state) will be saved.
  Walker Samples are dumped every 200 steps.
</vmc>
  Initial partition of walkers 0 1 

  Using Particle by Particle moves
  Walker moves without drift
  Total Sample Size   =1024
  Walker distribution on root = 0 1 
  Using Locality Approximation
===== Memory Usage after the buffer registration =====
Available memory on node 0, free + buffers : 85648 MB
Memory footprint by rank 0 on node 0       : 70 MB
==================================================
  Anonymous Buffer size per walker : 2688 Bytes.
MEMORY increase 0 MB VMC::resetRun
====================================================
  SimpleFixedNodeBranch::finalize after a VMC block
    QMC counter        = 0
    time step          = 0.15
    reference energy   = -24.1515
    reference variance = 0.471962
====================================================
  QMC Execution time = 1.5380e+00 secs
Loop execution max-interations = 20

=========================================================
  Start QMCFixedSampleLinearOptimize
  File Root F.log.s001 append = no 
=========================================================
  Skip QMCDriver::putQMCInfo 
  Resetting Properties of the walkers 1 x 13

=========================================================
  Start VMC
  File Root F.log.s001 append = no 
=========================================================
  Using the current 1 walkers.
  Total number of walkers: 1.0240e+03
  Total weight: 1.0240e+03
  Resetting Properties of the walkers 1 x 13

<vmc function="put">
  qmc_counter=0  my_counter=0
  time step      = 1.5000e-01
  blocks         = 300
  steps          = 2
  substeps       = 5
  current        = 0
  target samples = 5.1200e+05
  walkers/mpi    = 1

  stepsbetweensamples = 1
<parameter name="blocks" condition="int">300</parameter>
<parameter name="blocks_between_recompute" condition="int">0</parameter>
<parameter name="check_properties" condition="int">100</parameter>
<parameter name="checkproperties" condition="int">100</parameter>
<parameter name="current" condition="int">0</parameter>
<parameter name="dmcwalkersperthread" condition="real">5.0000e+02</parameter>
<parameter name="maxcpusecs" condition="real">3.6000e+05</parameter>
<parameter name="record_configs" condition="int">0</parameter>
<parameter name="record_walkers" condition="int">1</parameter>
<parameter name="recordconfigs" condition="int">0</parameter>
<parameter name="recordwalkers" condition="int">1</parameter>
<parameter name="rewind" condition="int">0</parameter>
<parameter name="samples" condition="real">5.1200e+05</parameter>
<parameter name="samplesperthread" condition="real">5.0000e+02</parameter>
<parameter name="steps" condition="int">2</parameter>
<parameter name="stepsbetweensamples" condition="int">1</parameter>
<parameter name="store_configs" condition="int">0</parameter>
<parameter name="storeconfigs" condition="int">0</parameter>
<parameter name="sub_steps" condition="int">5</parameter>
<parameter name="substeps" condition="int">5</parameter>
<parameter name="tau" condition="au">1.5000e-01</parameter>
<parameter name="time_step" condition="au">1.5000e-01</parameter>
<parameter name="timestep" condition="au">1.5000e-01</parameter>
<parameter name="use_drift" condition="string">no</parameter>
<parameter name="usedrift" condition="string">no</parameter>
<parameter name="walkers" condition="int">1</parameter>
<parameter name="warmup_steps" condition="int">0</parameter>
<parameter name="warmupsteps" condition="int">0</parameter>
  DumpConfig==false Nothing (configurations, state) will be saved.
  Walker Samples are dumped every 1 steps.
</vmc>
    Restarting, cummulative properties:
      energy     = -2.4151e+01
      variance   = 0.0000e+00
      r2accepted = 1.0000e-10
      r2proposed = 1.0000e-10
 Using QMCCostFunction::QMCCostFunction
  EstimatorManagerBase::add replace LocalEnergy estimator.
<optimization-report>
<vmc stage="main" blocks="300">
  Cannot make clones again. Use existing 1 clones
  Initial partition of walkers 0 1 

  Using Particle by Particle moves
  Walker moves without drift
  Total Sample Size   =512000
  Walker distribution on root = 0 1 
  Using Locality Approximation
===== Memory Usage after the buffer registration =====
Available memory on node 0, free + buffers : 85627 MB
Memory footprint by rank 0 on node 0       : 71 MB
==================================================
  Anonymous Buffer size per walker : 2688 Bytes.
MEMORY increase 0 MB VMC::resetRun
====================================================
  SimpleFixedNodeBranch::finalize after a VMC block
    QMC counter        = 1
    time step          = 0.15
    reference energy   = -24.1596
    reference variance = 0.417171
====================================================
  Execution time = 3.3534e+00
</vmc>
<opt stage="setup">
  <log>
   Reading configurations from h5FileRoot F.log.s001
  QMCCostFunction is created with 1 threads.
  Using Nonlocal PP in Opt: NonLocalECP
   Number of samples loaded to each thread : 500 
  VMC Eavg = -2.4156e+01
  VMC Evar = 4.4682e-01
  Total weights = 5.1200e+05
  Execution time = 1.3372e+00
  </log>
</opt>
<opt stage="main" walkers="512000">
  <log>

*****************************************
Building overlap and Hamiltonian matrices
*****************************************

Among totally 82 optimized parameters, largest LM parameter change : 1.4920e-01 at parameter 21

******************************************************************************
Init Cost =  -2.2926e+01    New Cost =  -2.2944e+01  Delta Cost =  -1.7608e-02
******************************************************************************

The new set of parameters is valid. Updating the trial wave function!

*****************************************************************************
Applying the update for shift_i =   1.0000e-02     and shift_s =   2.5000e-01
*****************************************************************************
  Execution time = 5.9184e+00
  </log>
  <optVariables href="F.log.s001.opt.xml">
uu_0 2.1453e-01 1 1  ON 0
uu_1 1.0008e-01 1 1  ON 1
uu_2 2.2631e-02 1 1  ON 2
uu_3 -2.4162e-02 1 1  ON 3
uu_4 -5.8522e-02 1 1  ON 4
uu_5 -7.8530e-02 1 1  ON 5
uu_6 -8.4972e-02 1 1  ON 6
uu_7 -8.1431e-02 1 1  ON 7
uu_8 -6.2024e-02 1 1  ON 8
uu_9 -3.2079e-02 1 1  ON 9
ud_0 3.7132e-01 1 1  ON 10
ud_1 1.4913e-01 1 1  ON 11
ud_2 2.0229e-02 1 1  ON 12
ud_3 -4.9443e-02 1 1  ON 13
ud_4 -8.5986e-02 1 1  ON 14
ud_5 -1.0206e-01 1 1  ON 15
ud_6 -1.0770e-01 1 1  ON 16
ud_7 -1.0596e-01 1 1  ON 17
ud_8 -8.3739e-02 1 1  ON 18
ud_9 -5.1726e-02 1 1  ON 19
eF_0 -7.5874e-01 1 1  ON 20
eF_1 -6.3977e-01 1 1  ON 21
eF_2 -2.2422e-01 1 1  ON 22
eF_3 1.8619e-01 1 1  ON 23
eF_4 3.7407e-01 1 1  ON 24
eF_5 3.2387e-01 1 1  ON 25
eF_6 3.4322e-01 1 1  ON 26
eF_7 2.8478e-01 1 1  ON 27
eF_8 1.7345e-01 1 1  ON 28
eF_9 5.0911e-03 1 1  ON 29
uuF_0 4.2718e-04 1 1  ON 30
uuF_1 1.1157e-04 1 1  ON 31
uuF_2 -6.2117e-04 1 1  ON 32
uuF_3 -6.3719e-04 1 1  ON 33
uuF_4 -2.2062e-04 1 1  ON 34
uuF_5 3.5171e-05 1 1  ON 35
uuF_6 -6.1042e-04 1 1  ON 36
uuF_7 1.4851e-04 1 1  ON 37
uuF_8 1.2373e-04 1 1  ON 38
uuF_9 1.2011e-04 1 1  ON 39
uuF_10 -6.6465e-04 1 1  ON 40
uuF_11 9.3320e-04 1 1  ON 41
uuF_12 -2.6475e-04 1 1  ON 42
uuF_13 9.4065e-04 1 1  ON 43
uuF_14 3.6358e-04 1 1  ON 44
uuF_15 -2.0309e-05 1 1  ON 45
uuF_16 -6.7568e-04 1 1  ON 46
uuF_17 2.5350e-03 1 1  ON 47
uuF_18 -2.4165e-03 1 1  ON 48
uuF_19 4.7924e-04 1 1  ON 49
uuF_20 -3.4384e-04 1 1  ON 50
uuF_21 4.2347e-04 1 1  ON 51
uuF_22 -1.0877e-04 1 1  ON 52
uuF_23 1.8506e-04 1 1  ON 53
uuF_24 -1.5590e-04 1 1  ON 54
uuF_25 4.0564e-05 1 1  ON 55
udF_0 -1.6067e-04 1 1  ON 56
udF_1 4.5761e-04 1 1  ON 57
udF_2 1.1595e-03 1 1  ON 58
udF_3 -3.1780e-04 1 1  ON 59
udF_4 -4.2020e-04 1 1  ON 60
udF_5 -2.0496e-06 1 1  ON 61
udF_6 1.2878e-03 1 1  ON 62
udF_7 -3.3957e-05 1 1  ON 63
udF_8 1.5778e-03 1 1  ON 64
udF_9 -7.0218e-04 1 1  ON 65
udF_10 -2.2655e-04 1 1  ON 66
udF_11 -6.1313e-04 1 1  ON 67
udF_12 -6.0699e-04 1 1  ON 68
udF_13 5.2037e-04 1 1  ON 69
udF_14 4.6473e-04 1 1  ON 70
udF_15 1.1606e-05 1 1  ON 71
udF_16 8.9694e-04 1 1  ON 72
udF_17 1.0388e-03 1 1  ON 73
udF_18 -8.0651e-04 1 1  ON 74
udF_19 4.6309e-04 1 1  ON 75
udF_20 -6.3391e-04 1 1  ON 76
udF_21 2.5789e-04 1 1  ON 77
udF_22 -9.8378e-05 1 1  ON 78
udF_23 4.2908e-04 1 1  ON 79
udF_24 -1.8080e-04 1 1  ON 80
udF_25 4.4603e-05 1 1  ON 81
  </optVariables>
   Restore the number of walkers to 1, removing 0 walkers.
</opt>
</optimization-report>
  QMC Execution time = 5.9322e+00 secs
  Reusing QMCFixedSampleLinearOptimize
 Using QMCCostFunction::QMCCostFunction

=========================================================
  Start QMCFixedSampleLinearOptimize
  File Root F.log.s002 append = no 
=========================================================
  Skip QMCDriver::putQMCInfo 
  Resetting Properties of the walkers 1 x 13

=========================================================
  Start VMC
  File Root F.log.s002 append = no 
=========================================================
Using existing walkers 
  Resetting Properties of the walkers 1 x 13

<vmc function="put">
  qmc_counter=1  my_counter=1
  time step      = 1.5000e-01
  blocks         = 300
  steps          = 2
  substeps       = 5
  current        = 0
  target samples = 5.1200e+05
  walkers/mpi    = 1

  stepsbetweensamples = 1
<parameter name="blocks" condition="int">300</parameter>
<parameter name="blocks_between_recompute" condition="int">0</parameter>
<parameter name="check_properties" condition="int">100</parameter>
<parameter name="checkproperties" condition="int">100</parameter>
<parameter name="current" condition="int">0</parameter>
<parameter name="dmcwalkersperthread" condition="real">5.0000e+02</parameter>
<parameter name="maxcpusecs" condition="real">3.6000e+05</parameter>
<parameter name="record_configs" condition="int">0</parameter>
<parameter name="record_walkers" condition="int">1</parameter>
<parameter name="recordconfigs" condition="int">0</parameter>
<parameter name="recordwalkers" condition="int">1</parameter>
<parameter name="rewind" condition="int">0</parameter>
<parameter name="samples" condition="real">5.1200e+05</parameter>
<parameter name="samplesperthread" condition="real">5.0000e+02</parameter>
<parameter name="steps" condition="int">2</parameter>
<parameter name="stepsbetweensamples" condition="int">1</parameter>
<parameter name="store_configs" condition="int">0</parameter>
<parameter name="storeconfigs" condition="int">0</parameter>
<parameter name="sub_steps" condition="int">5</parameter>
<parameter name="substeps" condition="int">5</parameter>
<parameter name="tau" condition="au">1.5000e-01</parameter>
<parameter name="time_step" condition="au">1.5000e-01</parameter>
<parameter name="timestep" condition="au">1.5000e-01</parameter>
<parameter name="use_drift" condition="string">no</parameter>
<parameter name="usedrift" condition="string">no</parameter>
<parameter name="walkers" condition="int">1</parameter>
<parameter name="warmup_steps" condition="int">0</parameter>
<parameter name="warmupsteps" condition="int">0</parameter>
  DumpConfig==false Nothing (configurations, state) will be saved.
  Walker Samples are dumped every 1 steps.
</vmc>
  EstimatorManagerBase::add replace LocalEnergy estimator.
  EstimatorManagerBase::add replace LocalEnergy estimator.
<optimization-report>
<vmc stage="main" blocks="300">
  Cannot make clones again. Use existing 1 clones
  Initial partition of walkers 0 1 
  Using Particle by Particle moves
  Walker moves without drift
  Total Sample Size   =512000
  Walker distribution on root = 0 1 
  Using Locality Approximation
===== Memory Usage after the buffer registration =====
Available memory on node 0, free + buffers : 84509 MB
Memory footprint by rank 0 on node 0       : 92 MB
==================================================
====================================================
  SimpleFixedNodeBranch::finalize after a VMC block
    QMC counter        = 2
    time step          = 0.15
    reference energy   = -24.1797
    reference variance = 0.211273
====================================================
  Execution time = 3.2958e+00
</vmc>
<opt stage="setup">
  <log>
   Reading configurations from h5FileRoot F.log.s002
  QMCCostFunction is created with 1 threads.
  Using Nonlocal PP in Opt: NonLocalECP
   Number of samples loaded to each thread : 500 
  VMC Eavg = -2.4169e+01
  VMC Evar = 3.2997e-01
  Total weights = 5.1200e+05
  Execution time = 1.2860e+00
  </log>
</opt>
<opt stage="main" walkers="512000">
  <log>

*****************************************
Building overlap and Hamiltonian matrices
*****************************************

Among totally 82 optimized parameters, largest LM parameter change : 1.0434e-01 at parameter 21

******************************************************************************
Init Cost =  -2.2944e+01    New Cost =  -2.2945e+01  Delta Cost =  -1.1161e-03
******************************************************************************

The new set of parameters is valid. Updating the trial wave function!

*****************************************************************************
Applying the update for shift_i =   1.0000e-02     and shift_s =   6.2500e-02
*****************************************************************************
  Execution time = 5.7350e+00
  </log>
  <optVariables href="F.log.s002.opt.xml">
uu_0 1.9943e-01 1 1  ON 0
uu_1 8.6372e-02 1 1  ON 1
uu_2 1.5069e-02 1 1  ON 2
uu_3 -2.3566e-02 1 1  ON 3
uu_4 -5.2352e-02 1 1  ON 4
uu_5 -7.0433e-02 1 1  ON 5
uu_6 -7.6336e-02 1 1  ON 6
uu_7 -7.6398e-02 1 1  ON 7
uu_8 -5.9000e-02 1 1  ON 8
uu_9 -3.0457e-02 1 1  ON 9
ud_0 3.7296e-01 1 1  ON 10
ud_1 1.4864e-01 1 1  ON 11
ud_2 1.9213e-02 1 1  ON 12
ud_3 -4.9121e-02 1 1  ON 13
ud_4 -8.3376e-02 1 1  ON 14
ud_5 -9.8074e-02 1 1  ON 15
ud_6 -1.0257e-01 1 1  ON 16
ud_7 -1.0375e-01 1 1  ON 17
ud_8 -8.8329e-02 1 1  ON 18
ud_9 -5.6982e-02 1 1  ON 19
eF_0 -8.2939e-01 1 1  ON 20
eF_1 -7.4411e-01 1 1  ON 21
eF_2 -2.6529e-01 1 1  ON 22
eF_3 2.4765e-01 1 1  ON 23
eF_4 4.6086e-01 1 1  ON 24
eF_5 3.3219e-01 1 1  ON 25
eF_6 3.6061e-01 1 1  ON 26
eF_7 3.0605e-01 1 1  ON 27
eF_8 1.8915e-01 1 1  ON 28
eF_9 1.3590e-02 1 1  ON 29
uuF_0 4.4121e-04 1 1  ON 30
uuF_1 2.2330e-04 1 1  ON 31
uuF_2 -5.9110e-04 1 1  ON 32
uuF_3 -6.9988e-04 1 1  ON 33
uuF_4 -3.0530e-04 1 1  ON 34
uuF_5 5.3991e-05 1 1  ON 35
uuF_6 -3.9572e-04 1 1  ON 36
uuF_7 1.2362e-04 1 1  ON 37
uuF_8 1.5302e-04 1 1  ON 38
uuF_9 -2.8575e-05 1 1  ON 39
uuF_10 -7.6461e-04 1 1  ON 40
uuF_11 9.9778e-04 1 1  ON 41
uuF_12 -3.4877e-04 1 1  ON 42
uuF_13 9.7157e-04 1 1  ON 43
uuF_14 4.1699e-04 1 1  ON 44
uuF_15 -1.8628e-05 1 1  ON 45
uuF_16 -2.3672e-04 1 1  ON 46
uuF_17 2.5526e-03 1 1  ON 47
uuF_18 -2.5709e-03 1 1  ON 48
uuF_19 6.2268e-04 1 1  ON 49
uuF_20 -4.7875e-04 1 1  ON 50
uuF_21 4.2638e-04 1 1  ON 51
uuF_22 -1.3158e-04 1 1  ON 52
uuF_23 2.3528e-04 1 1  ON 53
uuF_24 -1.6555e-04 1 1  ON 54
uuF_25 4.4111e-05 1 1  ON 55
udF_0 -1.4149e-04 1 1  ON 56
udF_1 5.3009e-04 1 1  ON 57
udF_2 1.1162e-03 1 1  ON 58
udF_3 -3.9137e-04 1 1  ON 59
udF_4 -4.6007e-04 1 1  ON 60
udF_5 2.5547e-05 1 1  ON 61
udF_6 1.3143e-03 1 1  ON 62
udF_7 -1.9378e-04 1 1  ON 63
udF_8 1.5613e-03 1 1  ON 64
udF_9 -6.5970e-04 1 1  ON 65
udF_10 -3.1347e-04 1 1  ON 66
udF_11 -2.9654e-04 1 1  ON 67
udF_12 -7.0891e-04 1 1  ON 68
udF_13 6.0118e-04 1 1  ON 69
udF_14 5.2268e-04 1 1  ON 70
udF_15 1.8871e-05 1 1  ON 71
udF_16 7.7829e-04 1 1  ON 72
udF_17 1.4572e-03 1 1  ON 73
udF_18 -1.4104e-03 1 1  ON 74
udF_19 6.8163e-04 1 1  ON 75
udF_20 -6.4846e-04 1 1  ON 76
udF_21 3.4958e-04 1 1  ON 77
udF_22 -1.4575e-04 1 1  ON 78
udF_23 4.3116e-04 1 1  ON 79
udF_24 -2.1155e-04 1 1  ON 80
udF_25 5.6563e-05 1 1  ON 81
  </optVariables>
   Restore the number of walkers to 1, removing 0 walkers.
</opt>
</optimization-report>
  QMC Execution time = 5.7479e+00 secs
  Reusing QMCFixedSampleLinearOptimize
 Using QMCCostFunction::QMCCostFunction

=========================================================
  Start QMCFixedSampleLinearOptimize
  File Root F.log.s003 append = no 
=========================================================
  Skip QMCDriver::putQMCInfo 
  Resetting Properties of the walkers 1 x 13

=========================================================
  Start VMC
  File Root F.log.s003 append = no 
=========================================================
Using existing walkers 
  Resetting Properties of the walkers 1 x 13

<vmc function="put">
  qmc_counter=2  my_counter=2
  time step      = 1.5000e-01
  blocks         = 300
  steps          = 2
  substeps       = 5
  current        = 0
  target samples = 5.1200e+05
  walkers/mpi    = 1

  stepsbetweensamples = 1
<parameter name="blocks" condition="int">300</parameter>
<parameter name="blocks_between_recompute" condition="int">0</parameter>
<parameter name="check_properties" condition="int">100</parameter>
<parameter name="checkproperties" condition="int">100</parameter>
<parameter name="current" condition="int">0</parameter>
<parameter name="dmcwalkersperthread" condition="real">5.0000e+02</parameter>
<parameter name="maxcpusecs" condition="real">3.6000e+05</parameter>
<parameter name="record_configs" condition="int">0</parameter>
<parameter name="record_walkers" condition="int">1</parameter>
<parameter name="recordconfigs" condition="int">0</parameter>
<parameter name="recordwalkers" condition="int">1</parameter>
<parameter name="rewind" condition="int">0</parameter>
<parameter name="samples" condition="real">5.1200e+05</parameter>
<parameter name="samplesperthread" condition="real">5.0000e+02</parameter>
<parameter name="steps" condition="int">2</parameter>
<parameter name="stepsbetweensamples" condition="int">1</parameter>
<parameter name="store_configs" condition="int">0</parameter>
<parameter name="storeconfigs" condition="int">0</parameter>
<parameter name="sub_steps" condition="int">5</parameter>
<parameter name="substeps" condition="int">5</parameter>
<parameter name="tau" condition="au">1.5000e-01</parameter>
<parameter name="time_step" condition="au">1.5000e-01</parameter>
<parameter name="timestep" condition="au">1.5000e-01</parameter>
<parameter name="use_drift" condition="string">no</parameter>
<parameter name="usedrift" condition="string">no</parameter>
<parameter name="walkers" condition="int">1</parameter>
<parameter name="warmup_steps" condition="int">0</parameter>
<parameter name="warmupsteps" condition="int">0</parameter>
  DumpConfig==false Nothing (configurations, state) will be saved.
  Walker Samples are dumped every 1 steps.
</vmc>
  EstimatorManagerBase::add replace LocalEnergy estimator.
  EstimatorManagerBase::add replace LocalEnergy estimator.
<optimization-report>
<vmc stage="main" blocks="300">
  Cannot make clones again. Use existing 1 clones
  Initial partition of walkers 0 1 
  Using Particle by Particle moves
  Walker moves without drift
  Total Sample Size   =512000
  Walker distribution on root = 0 1 
  Using Locality Approximation
===== Memory Usage after the buffer registration =====
Available memory on node 0, free + buffers : 84507 MB
Memory footprint by rank 0 on node 0       : 94 MB
==================================================
====================================================
  SimpleFixedNodeBranch::finalize after a VMC block
    QMC counter        = 3
    time step          = 0.15
    reference energy   = -24.1724
    reference variance = 0.247833
====================================================
  Execution time = 3.2962e+00
</vmc>
<opt stage="setup">
  <log>
   Reading configurations from h5FileRoot F.log.s003
  QMCCostFunction is created with 1 threads.
  Using Nonlocal PP in Opt: NonLocalECP
   Number of samples loaded to each thread : 500 
  VMC Eavg = -2.4169e+01
  VMC Evar = 3.1803e-01
  Total weights = 5.1200e+05
  Execution time = 1.2706e+00
  </log>
</opt>
<opt stage="main" walkers="512000">
  <log>

*****************************************
Building overlap and Hamiltonian matrices
*****************************************

Among totally 82 optimized parameters, largest LM parameter change : 6.8584e-02 at parameter 21

******************************************************************************
Init Cost =  -2.2945e+01    New Cost =  -2.2945e+01  Delta Cost =  -3.7192e-04
******************************************************************************

The new set of parameters is valid. Updating the trial wave function!

*****************************************************************************
Applying the update for shift_i =   1.0000e-02     and shift_s =   1.5625e-02
*****************************************************************************
  Execution time = 5.7088e+00
  </log>
  <optVariables href="F.log.s003.opt.xml">
uu_0 1.8410e-01 1 1  ON 0
uu_1 7.3667e-02 1 1  ON 1
uu_2 8.1418e-03 1 1  ON 2
uu_3 -2.4167e-02 1 1  ON 3
uu_4 -4.8429e-02 1 1  ON 4
uu_5 -6.5415e-02 1 1  ON 5
uu_6 -7.1239e-02 1 1  ON 6
uu_7 -7.2611e-02 1 1  ON 7
uu_8 -5.5377e-02 1 1  ON 8
uu_9 -2.7024e-02 1 1  ON 9
ud_0 3.6901e-01 1 1  ON 10
ud_1 1.4572e-01 1 1  ON 11
ud_2 1.8457e-02 1 1  ON 12
ud_3 -4.6749e-02 1 1  ON 13
ud_4 -7.8316e-02 1 1  ON 14
ud_5 -9.1412e-02 1 1  ON 15
ud_6 -9.6425e-02 1 1  ON 16
ud_7 -1.0172e-01 1 1  ON 17
ud_8 -8.8727e-02 1 1  ON 18
ud_9 -5.6838e-02 1 1  ON 19
eF_0 -8.8953e-01 1 1  ON 20
eF_1 -8.1269e-01 1 1  ON 21
eF_2 -2.9737e-01 1 1  ON 22
eF_3 2.7500e-01 1 1  ON 23
eF_4 5.1008e-01 1 1  ON 24
eF_5 3.4685e-01 1 1  ON 25
eF_6 3.8048e-01 1 1  ON 26
eF_7 3.2784e-01 1 1  ON 27
eF_8 2.0884e-01 1 1  ON 28
eF_9 2.4007e-02 1 1  ON 29
uuF_0 5.0182e-04 1 1  ON 30
uuF_1 2.3635e-04 1 1  ON 31
uuF_2 -8.1254e-04 1 1  ON 32
uuF_3 -7.3897e-04 1 1  ON 33
uuF_4 -3.0671e-04 1 1  ON 34
uuF_5 7.8518e-05 1 1  ON 35
uuF_6 -4.9451e-04 1 1  ON 36
uuF_7 -4.9608e-05 1 1  ON 37
uuF_8 -8.5145e-05 1 1  ON 38
uuF_9 3.2939e-05 1 1  ON 39
uuF_10 -8.5660e-04 1 1  ON 40
uuF_11 1.3766e-03 1 1  ON 41
uuF_12 -3.6756e-04 1 1  ON 42
uuF_13 1.0369e-03 1 1  ON 43
uuF_14 4.1208e-04 1 1  ON 44
uuF_15 -1.3974e-05 1 1  ON 45
uuF_16 -2.5049e-04 1 1  ON 46
uuF_17 2.7618e-03 1 1  ON 47
uuF_18 -2.9238e-03 1 1  ON 48
uuF_19 7.5326e-04 1 1  ON 49
uuF_20 -5.4721e-04 1 1  ON 50
uuF_21 4.4139e-04 1 1  ON 51
uuF_22 -1.5294e-04 1 1  ON 52
uuF_23 2.9756e-04 1 1  ON 53
uuF_24 -1.7181e-04 1 1  ON 54
uuF_25 4.6984e-05 1 1  ON 55
udF_0 -1.2574e-04 1 1  ON 56
udF_1 5.4156e-04 1 1  ON 57
udF_2 1.0396e-03 1 1  ON 58
udF_3 -3.8901e-04 1 1  ON 59
udF_4 -4.6244e-04 1 1  ON 60
udF_5 4.8766e-05 1 1  ON 61
udF_6 1.2748e-03 1 1  ON 62
udF_7 -1.6754e-04 1 1  ON 63
udF_8 1.4804e-03 1 1  ON 64
udF_9 -6.2394e-04 1 1  ON 65
udF_10 -3.2924e-04 1 1  ON 66
udF_11 -2.6855e-04 1 1  ON 67
udF_12 -7.3206e-04 1 1  ON 68
udF_13 5.4590e-04 1 1  ON 69
udF_14 5.4653e-04 1 1  ON 70
udF_15 1.9110e-05 1 1  ON 71
udF_16 8.4894e-04 1 1  ON 72
udF_17 1.3696e-03 1 1  ON 73
udF_18 -1.3211e-03 1 1  ON 74
udF_19 7.3836e-04 1 1  ON 75
udF_20 -6.3577e-04 1 1  ON 76
udF_21 2.8406e-04 1 1  ON 77
udF_22 -1.4700e-04 1 1  ON 78
udF_23 4.2320e-04 1 1  ON 79
udF_24 -1.9182e-04 1 1  ON 80
udF_25 5.3151e-05 1 1  ON 81
  </optVariables>
   Restore the number of walkers to 1, removing 0 walkers.
</opt>
</optimization-report>
  QMC Execution time = 5.7222e+00 secs
  Reusing QMCFixedSampleLinearOptimize
 Using QMCCostFunction::QMCCostFunction

=========================================================
  Start QMCFixedSampleLinearOptimize
  File Root F.log.s004 append = no 
=========================================================
  Skip QMCDriver::putQMCInfo 
  Resetting Properties of the walkers 1 x 13

=========================================================
  Start VMC
  File Root F.log.s004 append = no 
=========================================================
Using existing walkers 
  Resetting Properties of the walkers 1 x 13

<vmc function="put">
  qmc_counter=3  my_counter=3
  time step      = 1.5000e-01
  blocks         = 300
  steps          = 2
  substeps       = 5
  current        = 0
  target samples = 5.1200e+05
  walkers/mpi    = 1

  stepsbetweensamples = 1
<parameter name="blocks" condition="int">300</parameter>
<parameter name="blocks_between_recompute" condition="int">0</parameter>
<parameter name="check_properties" condition="int">100</parameter>
<parameter name="checkproperties" condition="int">100</parameter>
<parameter name="current" condition="int">0</parameter>
<parameter name="dmcwalkersperthread" condition="real">5.0000e+02</parameter>
<parameter name="maxcpusecs" condition="real">3.6000e+05</parameter>
<parameter name="record_configs" condition="int">0</parameter>
<parameter name="record_walkers" condition="int">1</parameter>
<parameter name="recordconfigs" condition="int">0</parameter>
<parameter name="recordwalkers" condition="int">1</parameter>
<parameter name="rewind" condition="int">0</parameter>
<parameter name="samples" condition="real">5.1200e+05</parameter>
<parameter name="samplesperthread" condition="real">5.0000e+02</parameter>
<parameter name="steps" condition="int">2</parameter>
<parameter name="stepsbetweensamples" condition="int">1</parameter>
<parameter name="store_configs" condition="int">0</parameter>
<parameter name="storeconfigs" condition="int">0</parameter>
<parameter name="sub_steps" condition="int">5</parameter>
<parameter name="substeps" condition="int">5</parameter>
<parameter name="tau" condition="au">1.5000e-01</parameter>
<parameter name="time_step" condition="au">1.5000e-01</parameter>
<parameter name="timestep" condition="au">1.5000e-01</parameter>
<parameter name="use_drift" condition="string">no</parameter>
<parameter name="usedrift" condition="string">no</parameter>
<parameter name="walkers" condition="int">1</parameter>
<parameter name="warmup_steps" condition="int">0</parameter>
<parameter name="warmupsteps" condition="int">0</parameter>
  DumpConfig==false Nothing (configurations, state) will be saved.
  Walker Samples are dumped every 1 steps.
</vmc>
  EstimatorManagerBase::add replace LocalEnergy estimator.
  EstimatorManagerBase::add replace LocalEnergy estimator.
<optimization-report>
<vmc stage="main" blocks="300">
  Cannot make clones again. Use existing 1 clones
  Initial partition of walkers 0 1 
  Using Particle by Particle moves
  Walker moves without drift
  Total Sample Size   =512000
  Walker distribution on root = 0 1 
  Using Locality Approximation
===== Memory Usage after the buffer registration =====
Available memory on node 0, free + buffers : 84504 MB
Memory footprint by rank 0 on node 0       : 96 MB
==================================================
====================================================
  SimpleFixedNodeBranch::finalize after a VMC block
    QMC counter        = 4
    time step          = 0.15
    reference energy   = -24.1923
    reference variance = 0.352013
====================================================
  Execution time = 3.2362e+00
</vmc>
<opt stage="setup">
  <log>
   Reading configurations from h5FileRoot F.log.s004
  QMCCostFunction is created with 1 threads.
  Using Nonlocal PP in Opt: NonLocalECP
   Number of samples loaded to each thread : 500 
  VMC Eavg = -2.4169e+01
  VMC Evar = 3.1001e-01
  Total weights = 5.1200e+05
  Execution time = 1.2577e+00
  </log>
</opt>
<opt stage="main" walkers="512000">
  <log>

*****************************************
Building overlap and Hamiltonian matrices
*****************************************

Among totally 82 optimized parameters, largest LM parameter change : 4.9977e-02 at parameter 20

******************************************************************************
Init Cost =  -2.2945e+01    New Cost =  -2.2945e+01  Delta Cost =  -1.7669e-04
******************************************************************************

The new set of parameters is valid. Updating the trial wave function!

*****************************************************************************
Applying the update for shift_i =   1.0000e-02     and shift_s =   3.9062e-03
*****************************************************************************
  Execution time = 5.6058e+00
  </log>
  <optVariables href="F.log.s004.opt.xml">
uu_0 1.7252e-01 1 1  ON 0
uu_1 6.5831e-02 1 1  ON 1
uu_2 5.1996e-03 1 1  ON 2
uu_3 -2.2808e-02 1 1  ON 3
uu_4 -4.4180e-02 1 1  ON 4
uu_5 -6.0415e-02 1 1  ON 5
uu_6 -6.6091e-02 1 1  ON 6
uu_7 -7.0753e-02 1 1  ON 7
uu_8 -5.6224e-02 1 1  ON 8
uu_9 -2.6610e-02 1 1  ON 9
ud_0 3.6303e-01 1 1  ON 10
ud_1 1.4131e-01 1 1  ON 11
ud_2 1.7184e-02 1 1  ON 12
ud_3 -4.5156e-02 1 1  ON 13
ud_4 -7.4329e-02 1 1  ON 14
ud_5 -8.6890e-02 1 1  ON 15
ud_6 -9.1902e-02 1 1  ON 16
ud_7 -9.7956e-02 1 1  ON 17
ud_8 -8.6710e-02 1 1  ON 18
ud_9 -5.7802e-02 1 1  ON 19
eF_0 -9.3951e-01 1 1  ON 20
eF_1 -8.6225e-01 1 1  ON 21
eF_2 -3.2844e-01 1 1  ON 22
eF_3 2.8099e-01 1 1  ON 23
eF_4 5.4166e-01 1 1  ON 24
eF_5 3.6737e-01 1 1  ON 25
eF_6 4.0442e-01 1 1  ON 26
eF_7 3.5005e-01 1 1  ON 27
eF_8 2.2882e-01 1 1  ON 28
eF_9 3.2438e-02 1 1  ON 29
uuF_0 4.7335e-04 1 1  ON 30
uuF_1 2.2925e-04 1 1  ON 31
uuF_2 -8.2667e-04 1 1  ON 32
uuF_3 -7.1746e-04 1 1  ON 33
uuF_4 -3.2324e-04 1 1  ON 34
uuF_5 1.0440e-04 1 1  ON 35
uuF_6 -5.6035e-04 1 1  ON 36
uuF_7 7.4105e-05 1 1  ON 37
uuF_8 -2.8296e-05 1 1  ON 38
uuF_9 1.1216e-04 1 1  ON 39
uuF_10 -8.6442e-04 1 1  ON 40
uuF_11 1.3090e-03 1 1  ON 41
uuF_12 -4.2833e-04 1 1  ON 42
uuF_13 9.8627e-04 1 1  ON 43
uuF_14 4.8132e-04 1 1  ON 44
uuF_15 -1.5330e-05 1 1  ON 45
uuF_16 -3.6934e-04 1 1  ON 46
uuF_17 2.7941e-03 1 1  ON 47
uuF_18 -2.8822e-03 1 1  ON 48
uuF_19 8.1521e-04 1 1  ON 49
uuF_20 -4.6213e-04 1 1  ON 50
uuF_21 3.8197e-04 1 1  ON 51
uuF_22 -1.5096e-04 1 1  ON 52
uuF_23 2.6499e-04 1 1  ON 53
uuF_24 -1.4843e-04 1 1  ON 54
uuF_25 4.1331e-05 1 1  ON 55
udF_0 -1.3909e-04 1 1  ON 56
udF_1 5.6867e-04 1 1  ON 57
udF_2 1.0490e-03 1 1  ON 58
udF_3 -4.1002e-04 1 1  ON 59
udF_4 -4.9344e-04 1 1  ON 60
udF_5 6.3881e-05 1 1  ON 61
udF_6 1.2867e-03 1 1  ON 62
udF_7 -1.7883e-04 1 1  ON 63
udF_8 1.5703e-03 1 1  ON 64
udF_9 -6.0254e-04 1 1  ON 65
udF_10 -3.6392e-04 1 1  ON 66
udF_11 -2.6850e-04 1 1  ON 67
udF_12 -8.2457e-04 1 1  ON 68
udF_13 5.8529e-04 1 1  ON 69
udF_14 6.2961e-04 1 1  ON 70
udF_15 2.0162e-05 1 1  ON 71
udF_16 7.4447e-04 1 1  ON 72
udF_17 1.5044e-03 1 1  ON 73
udF_18 -1.3117e-03 1 1  ON 74
udF_19 8.2952e-04 1 1  ON 75
udF_20 -6.0756e-04 1 1  ON 76
udF_21 2.0417e-04 1 1  ON 77
udF_22 -1.4489e-04 1 1  ON 78
udF_23 4.0502e-04 1 1  ON 79
udF_24 -1.5504e-04 1 1  ON 80
udF_25 4.4439e-05 1 1  ON 81
  </optVariables>
   Restore the number of walkers to 1, removing 0 walkers.
</opt>
</optimization-report>
  QMC Execution time = 5.6190e+00 secs
  Reusing QMCFixedSampleLinearOptimize
 Using QMCCostFunction::QMCCostFunction

=========================================================
  Start QMCFixedSampleLinearOptimize
  File Root F.log.s005 append = no 
=========================================================
  Skip QMCDriver::putQMCInfo 
  Resetting Properties of the walkers 1 x 13

=========================================================
  Start VMC
  File Root F.log.s005 append = no 
=========================================================
Using existing walkers 
  Resetting Properties of the walkers 1 x 13

<vmc function="put">
  qmc_counter=4  my_counter=4
  time step      = 1.5000e-01
  blocks         = 300
  steps          = 2
  substeps       = 5
  current        = 0
  target samples = 5.1200e+05
  walkers/mpi    = 1

  stepsbetweensamples = 1
<parameter name="blocks" condition="int">300</parameter>
<parameter name="blocks_between_recompute" condition="int">0</parameter>
<parameter name="check_properties" condition="int">100</parameter>
<parameter name="checkproperties" condition="int">100</parameter>
<parameter name="current" condition="int">0</parameter>
<parameter name="dmcwalkersperthread" condition="real">5.0000e+02</parameter>
<parameter name="maxcpusecs" condition="real">3.6000e+05</parameter>
<parameter name="record_configs" condition="int">0</parameter>
<parameter name="record_walkers" condition="int">1</parameter>
<parameter name="recordconfigs" condition="int">0</parameter>
<parameter name="recordwalkers" condition="int">1</parameter>
<parameter name="rewind" condition="int">0</parameter>
<parameter name="samples" condition="real">5.1200e+05</parameter>
<parameter name="samplesperthread" condition="real">5.0000e+02</parameter>
<parameter name="steps" condition="int">2</parameter>
<parameter name="stepsbetweensamples" condition="int">1</parameter>
<parameter name="store_configs" condition="int">0</parameter>
<parameter name="storeconfigs" condition="int">0</parameter>
<parameter name="sub_steps" condition="int">5</parameter>
<parameter name="substeps" condition="int">5</parameter>
<parameter name="tau" condition="au">1.5000e-01</parameter>
<parameter name="time_step" condition="au">1.5000e-01</parameter>
<parameter name="timestep" condition="au">1.5000e-01</parameter>
<parameter name="use_drift" condition="string">no</parameter>
<parameter name="usedrift" condition="string">no</parameter>
<parameter name="walkers" condition="int">1</parameter>
<parameter name="warmup_steps" condition="int">0</parameter>
<parameter name="warmupsteps" condition="int">0</parameter>
  DumpConfig==false Nothing (configurations, state) will be saved.
  Walker Samples are dumped every 1 steps.
</vmc>
  EstimatorManagerBase::add replace LocalEnergy estimator.
  EstimatorManagerBase::add replace LocalEnergy estimator.
<optimization-report>
<vmc stage="main" blocks="300">
  Cannot make clones again. Use existing 1 clones
  Initial partition of walkers 0 1 
  Using Particle by Particle moves
  Walker moves without drift
  Total Sample Size   =512000
  Walker distribution on root = 0 1 
  Using Locality Approximation
===== Memory Usage after the buffer registration =====
Available memory on node 0, free + buffers : 84502 MB
Memory footprint by rank 0 on node 0       : 99 MB
==================================================
====================================================
  SimpleFixedNodeBranch::finalize after a VMC block
    QMC counter        = 5
    time step          = 0.15
    reference energy   = -24.1927
    reference variance = 0.251757
====================================================
  Execution time = 3.2058e+00
</vmc>
<opt stage="setup">
  <log>
   Reading configurations from h5FileRoot F.log.s005
  QMCCostFunction is created with 1 threads.
  Using Nonlocal PP in Opt: NonLocalECP
   Number of samples loaded to each thread : 500 
  VMC Eavg = -2.4170e+01
  VMC Evar = 3.1584e-01
  Total weights = 5.1200e+05
  Execution time = 1.2203e+00
  </log>
</opt>
<opt stage="main" walkers="512000">
  <log>

*****************************************
Building overlap and Hamiltonian matrices
*****************************************

Among totally 82 optimized parameters, largest LM parameter change : 4.5090e-02 at parameter 20

******************************************************************************
Init Cost =  -2.2946e+01    New Cost =  -2.2946e+01  Delta Cost =  -2.3726e-04
******************************************************************************

The new set of parameters is valid. Updating the trial wave function!

*****************************************************************************
Applying the update for shift_i =   1.0000e-02     and shift_s =   3.9062e-03
*****************************************************************************
  Execution time = 5.4920e+00
  </log>
  <optVariables href="F.log.s005.opt.xml">
uu_0 1.6424e-01 1 1  ON 0
uu_1 5.9032e-02 1 1  ON 1
uu_2 1.3850e-03 1 1  ON 2
uu_3 -2.2868e-02 1 1  ON 3
uu_4 -4.1580e-02 1 1  ON 4
uu_5 -5.7766e-02 1 1  ON 5
uu_6 -6.4497e-02 1 1  ON 6
uu_7 -6.8031e-02 1 1  ON 7
uu_8 -5.4790e-02 1 1  ON 8
uu_9 -2.6071e-02 1 1  ON 9
ud_0 3.6128e-01 1 1  ON 10
ud_1 1.4091e-01 1 1  ON 11
ud_2 1.7130e-02 1 1  ON 12
ud_3 -4.4913e-02 1 1  ON 13
ud_4 -7.4106e-02 1 1  ON 14
ud_5 -8.6659e-02 1 1  ON 15
ud_6 -9.1331e-02 1 1  ON 16
ud_7 -9.6428e-02 1 1  ON 17
ud_8 -8.5945e-02 1 1  ON 18
ud_9 -5.4497e-02 1 1  ON 19
eF_0 -9.8460e-01 1 1  ON 20
eF_1 -9.0012e-01 1 1  ON 21
eF_2 -3.5354e-01 1 1  ON 22
eF_3 2.7872e-01 1 1  ON 23
eF_4 5.5861e-01 1 1  ON 24
eF_5 3.8727e-01 1 1  ON 25
eF_6 4.1876e-01 1 1  ON 26
eF_7 3.7395e-01 1 1  ON 27
eF_8 2.5393e-01 1 1  ON 28
eF_9 4.5201e-02 1 1  ON 29
uuF_0 5.1676e-04 1 1  ON 30
uuF_1 2.6396e-04 1 1  ON 31
uuF_2 -9.0448e-04 1 1  ON 32
uuF_3 -7.4934e-04 1 1  ON 33
uuF_4 -3.2959e-04 1 1  ON 34
uuF_5 1.1762e-04 1 1  ON 35
uuF_6 -5.1892e-04 1 1  ON 36
uuF_7 -7.1995e-05 1 1  ON 37
uuF_8 -1.3450e-04 1 1  ON 38
uuF_9 5.3690e-05 1 1  ON 39
uuF_10 -9.1648e-04 1 1  ON 40
uuF_11 1.4741e-03 1 1  ON 41
uuF_12 -4.2685e-04 1 1  ON 42
uuF_13 1.0757e-03 1 1  ON 43
uuF_14 4.6445e-04 1 1  ON 44
uuF_15 -1.2888e-05 1 1  ON 45
uuF_16 -2.3513e-04 1 1  ON 46
uuF_17 2.8393e-03 1 1  ON 47
uuF_18 -2.9354e-03 1 1  ON 48
uuF_19 8.4708e-04 1 1  ON 49
uuF_20 -5.7283e-04 1 1  ON 50
uuF_21 3.5849e-04 1 1  ON 51
uuF_22 -1.5150e-04 1 1  ON 52
uuF_23 3.3735e-04 1 1  ON 53
uuF_24 -1.3979e-04 1 1  ON 54
uuF_25 3.8653e-05 1 1  ON 55
udF_0 -1.3894e-04 1 1  ON 56
udF_1 5.5667e-04 1 1  ON 57
udF_2 1.0491e-03 1 1  ON 58
udF_3 -3.8940e-04 1 1  ON 59
udF_4 -4.8101e-04 1 1  ON 60
udF_5 7.8081e-05 1 1  ON 61
udF_6 1.2385e-03 1 1  ON 62
udF_7 -1.2494e-04 1 1  ON 63
udF_8 1.5821e-03 1 1  ON 64
udF_9 -5.7351e-04 1 1  ON 65
udF_10 -3.3550e-04 1 1  ON 66
udF_11 -3.5860e-04 1 1  ON 67
udF_12 -8.1860e-04 1 1  ON 68
udF_13 5.5281e-04 1 1  ON 69
udF_14 6.2937e-04 1 1  ON 70
udF_15 2.0734e-05 1 1  ON 71
udF_16 7.3597e-04 1 1  ON 72
udF_17 1.4049e-03 1 1  ON 73
udF_18 -1.1505e-03 1 1  ON 74
udF_19 8.0812e-04 1 1  ON 75
udF_20 -5.8205e-04 1 1  ON 76
udF_21 1.6963e-04 1 1  ON 77
udF_22 -1.3882e-04 1 1  ON 78
udF_23 3.9716e-04 1 1  ON 79
udF_24 -1.4850e-04 1 1  ON 80
udF_25 4.3017e-05 1 1  ON 81
  </optVariables>
   Restore the number of walkers to 1, removing 0 walkers.
</opt>
</optimization-report>
  QMC Execution time = 5.5053e+00 secs
  Reusing QMCFixedSampleLinearOptimize
 Using QMCCostFunction::QMCCostFunction

=========================================================
  Start QMCFixedSampleLinearOptimize
  File Root F.log.s006 append = no 
=========================================================
  Skip QMCDriver::putQMCInfo 
  Resetting Properties of the walkers 1 x 13

=========================================================
  Start VMC
  File Root F.log.s006 append = no 
=========================================================
Using existing walkers 
  Resetting Properties of the walkers 1 x 13

<vmc function="put">
  qmc_counter=5  my_counter=5
  time step      = 1.5000e-01
  blocks         = 300
  steps          = 2
  substeps       = 5
  current        = 0
  target samples = 5.1200e+05
  walkers/mpi    = 1

  stepsbetweensamples = 1
<parameter name="blocks" condition="int">300</parameter>
<parameter name="blocks_between_recompute" condition="int">0</parameter>
<parameter name="check_properties" condition="int">100</parameter>
<parameter name="checkproperties" condition="int">100</parameter>
<parameter name="current" condition="int">0</parameter>
<parameter name="dmcwalkersperthread" condition="real">5.0000e+02</parameter>
<parameter name="maxcpusecs" condition="real">3.6000e+05</parameter>
<parameter name="record_configs" condition="int">0</parameter>
<parameter name="record_walkers" condition="int">1</parameter>
<parameter name="recordconfigs" condition="int">0</parameter>
<parameter name="recordwalkers" condition="int">1</parameter>
<parameter name="rewind" condition="int">0</parameter>
<parameter name="samples" condition="real">5.1200e+05</parameter>
<parameter name="samplesperthread" condition="real">5.0000e+02</parameter>
<parameter name="steps" condition="int">2</parameter>
<parameter name="stepsbetweensamples" condition="int">1</parameter>
<parameter name="store_configs" condition="int">0</parameter>
<parameter name="storeconfigs" condition="int">0</parameter>
<parameter name="sub_steps" condition="int">5</parameter>
<parameter name="substeps" condition="int">5</parameter>
<parameter name="tau" condition="au">1.5000e-01</parameter>
<parameter name="time_step" condition="au">1.5000e-01</parameter>
<parameter name="timestep" condition="au">1.5000e-01</parameter>
<parameter name="use_drift" condition="string">no</parameter>
<parameter name="usedrift" condition="string">no</parameter>
<parameter name="walkers" condition="int">1</parameter>
<parameter name="warmup_steps" condition="int">0</parameter>
<parameter name="warmupsteps" condition="int">0</parameter>
  DumpConfig==false Nothing (configurations, state) will be saved.
  Walker Samples are dumped every 1 steps.
</vmc>
  EstimatorManagerBase::add replace LocalEnergy estimator.
  EstimatorManagerBase::add replace LocalEnergy estimator.
<optimization-report>
<vmc stage="main" blocks="300">
  Cannot make clones again. Use existing 1 clones
  Initial partition of walkers 0 1 
  Using Particle by Particle moves
  Walker moves without drift
  Total Sample Size   =512000
  Walker distribution on root = 0 1 
  Using Locality Approximation
===== Memory Usage after the buffer registration =====
Available memory on node 0, free + buffers : 84499 MB
Memory footprint by rank 0 on node 0       : 101 MB
==================================================
====================================================
  SimpleFixedNodeBranch::finalize after a VMC block
    QMC counter        = 6
    time step          = 0.15
    reference energy   = -24.1545
    reference variance = 0.334482
====================================================
  Execution time = 3.1882e+00
</vmc>
<opt stage="setup">
  <log>
   Reading configurations from h5FileRoot F.log.s006
  QMCCostFunction is created with 1 threads.
  Using Nonlocal PP in Opt: NonLocalECP
   Number of samples loaded to each thread : 500 
  VMC Eavg = -2.4171e+01
  VMC Evar = 3.1642e-01
  Total weights = 5.1200e+05
  Execution time = 1.2403e+00
  </log>
</opt>
<opt stage="main" walkers="512000">
  <log>

*****************************************
Building overlap and Hamiltonian matrices
*****************************************

Among totally 82 optimized parameters, largest LM parameter change : 3.5374e-02 at parameter 20

******************************************************************************
Init Cost =  -2.2947e+01    New Cost =  -2.2947e+01  Delta Cost =  -2.0578e-04
******************************************************************************

The new set of parameters is valid. Updating the trial wave function!

*****************************************************************************
Applying the update for shift_i =   1.0000e-02     and shift_s =   3.9062e-03
*****************************************************************************
  Execution time = 5.5226e+00
  </log>
  <optVariables href="F.log.s006.opt.xml">
uu_0 1.5818e-01 1 1  ON 0
uu_1 5.3869e-02 1 1  ON 1
uu_2 -8.5836e-04 1 1  ON 2
uu_3 -2.3642e-02 1 1  ON 3
uu_4 -4.1843e-02 1 1  ON 4
uu_5 -5.7399e-02 1 1  ON 5
uu_6 -6.4910e-02 1 1  ON 6
uu_7 -7.0006e-02 1 1  ON 7
uu_8 -5.8327e-02 1 1  ON 8
uu_9 -2.4799e-02 1 1  ON 9
ud_0 3.5980e-01 1 1  ON 10
ud_1 1.3955e-01 1 1  ON 11
ud_2 1.6836e-02 1 1  ON 12
ud_3 -4.4518e-02 1 1  ON 13
ud_4 -7.3204e-02 1 1  ON 14
ud_5 -8.5980e-02 1 1  ON 15
ud_6 -9.1128e-02 1 1  ON 16
ud_7 -9.8336e-02 1 1  ON 17
ud_8 -8.5686e-02 1 1  ON 18
ud_9 -5.3627e-02 1 1  ON 19
eF_0 -1.0200e+00 1 1  ON 20
eF_1 -9.2947e-01 1 1  ON 21
eF_2 -3.7938e-01 1 1  ON 22
eF_3 2.6510e-01 1 1  ON 23
eF_4 5.6295e-01 1 1  ON 24
eF_5 4.0187e-01 1 1  ON 25
eF_6 4.4095e-01 1 1  ON 26
eF_7 3.9978e-01 1 1  ON 27
eF_8 2.7689e-01 1 1  ON 28
eF_9 5.9113e-02 1 1  ON 29
uuF_0 4.9708e-04 1 1  ON 30
uuF_1 2.5389e-04 1 1  ON 31
uuF_2 -9.6794e-04 1 1  ON 32
uuF_3 -7.3372e-04 1 1  ON 33
uuF_4 -3.1327e-04 1 1  ON 34
uuF_5 1.2543e-04 1 1  ON 35
uuF_6 -5.5454e-04 1 1  ON 36
uuF_7 -1.5399e-04 1 1  ON 37
uuF_8 -2.2874e-04 1 1  ON 38
uuF_9 1.2733e-04 1 1  ON 39
uuF_10 -9.2175e-04 1 1  ON 40
uuF_11 1.6319e-03 1 1  ON 41
uuF_12 -4.2733e-04 1 1  ON 42
uuF_13 1.0551e-03 1 1  ON 43
uuF_14 4.5879e-04 1 1  ON 44
uuF_15 -1.2031e-05 1 1  ON 45
uuF_16 -3.8502e-04 1 1  ON 46
uuF_17 2.9262e-03 1 1  ON 47
uuF_18 -3.1137e-03 1 1  ON 48
uuF_19 8.9532e-04 1 1  ON 49
uuF_20 -5.2980e-04 1 1  ON 50
uuF_21 3.7369e-04 1 1  ON 51
uuF_22 -1.6045e-04 1 1  ON 52
uuF_23 3.3763e-04 1 1  ON 53
uuF_24 -1.4330e-04 1 1  ON 54
uuF_25 4.0728e-05 1 1  ON 55
udF_0 -1.3574e-04 1 1  ON 56
udF_1 5.5403e-04 1 1  ON 57
udF_2 1.0044e-03 1 1  ON 58
udF_3 -3.9314e-04 1 1  ON 59
udF_4 -4.7566e-04 1 1  ON 60
udF_5 8.5414e-05 1 1  ON 61
udF_6 1.2235e-03 1 1  ON 62
udF_7 -2.4181e-04 1 1  ON 63
udF_8 1.5390e-03 1 1  ON 64
udF_9 -5.4547e-04 1 1  ON 65
udF_10 -3.5392e-04 1 1  ON 66
udF_11 -1.9959e-04 1 1  ON 67
udF_12 -8.4523e-04 1 1  ON 68
udF_13 5.9554e-04 1 1  ON 69
udF_14 6.4216e-04 1 1  ON 70
udF_15 2.3156e-05 1 1  ON 71
udF_16 6.2842e-04 1 1  ON 72
udF_17 1.5725e-03 1 1  ON 73
udF_18 -1.3699e-03 1 1  ON 74
udF_19 8.7914e-04 1 1  ON 75
udF_20 -5.8426e-04 1 1  ON 76
udF_21 1.9009e-04 1 1  ON 77
udF_22 -1.5124e-04 1 1  ON 78
udF_23 4.1174e-04 1 1  ON 79
udF_24 -1.5262e-04 1 1  ON 80
udF_25 4.5064e-05 1 1  ON 81
  </optVariables>
   Restore the number of walkers to 1, removing 0 walkers.
</opt>
</optimization-report>
  QMC Execution time = 5.5351e+00 secs
  Reusing QMCFixedSampleLinearOptimize
 Using QMCCostFunction::QMCCostFunction

=========================================================
  Start QMCFixedSampleLinearOptimize
  File Root F.log.s007 append = no 
=========================================================
  Skip QMCDriver::putQMCInfo 
  Resetting Properties of the walkers 1 x 13

=========================================================
  Start VMC
  File Root F.log.s007 append = no 
=========================================================
Using existing walkers 
  Resetting Properties of the walkers 1 x 13

<vmc function="put">
  qmc_counter=6  my_counter=6
  time step      = 1.5000e-01
  blocks         = 300
  steps          = 2
  substeps       = 5
  current        = 0
  target samples = 5.1200e+05
  walkers/mpi    = 1

  stepsbetweensamples = 1
<parameter name="blocks" condition="int">300</parameter>
<parameter name="blocks_between_recompute" condition="int">0</parameter>
<parameter name="check_properties" condition="int">100</parameter>
<parameter name="checkproperties" condition="int">100</parameter>
<parameter name="current" condition="int">0</parameter>
<parameter name="dmcwalkersperthread" condition="real">5.0000e+02</parameter>
<parameter name="maxcpusecs" condition="real">3.6000e+05</parameter>
<parameter name="record_configs" condition="int">0</parameter>
<parameter name="record_walkers" condition="int">1</parameter>
<parameter name="recordconfigs" condition="int">0</parameter>
<parameter name="recordwalkers" condition="int">1</parameter>
<parameter name="rewind" condition="int">0</parameter>
<parameter name="samples" condition="real">5.1200e+05</parameter>
<parameter name="samplesperthread" condition="real">5.0000e+02</parameter>
<parameter name="steps" condition="int">2</parameter>
<parameter name="stepsbetweensamples" condition="int">1</parameter>
<parameter name="store_configs" condition="int">0</parameter>
<parameter name="storeconfigs" condition="int">0</parameter>
<parameter name="sub_steps" condition="int">5</parameter>
<parameter name="substeps" condition="int">5</parameter>
<parameter name="tau" condition="au">1.5000e-01</parameter>
<parameter name="time_step" condition="au">1.5000e-01</parameter>
<parameter name="timestep" condition="au">1.5000e-01</parameter>
<parameter name="use_drift" condition="string">no</parameter>
<parameter name="usedrift" condition="string">no</parameter>
<parameter name="walkers" condition="int">1</parameter>
<parameter name="warmup_steps" condition="int">0</parameter>
<parameter name="warmupsteps" condition="int">0</parameter>
  DumpConfig==false Nothing (configurations, state) will be saved.
  Walker Samples are dumped every 1 steps.
</vmc>
  EstimatorManagerBase::add replace LocalEnergy estimator.
  EstimatorManagerBase::add replace LocalEnergy estimator.
<optimization-report>
<vmc stage="main" blocks="300">
  Cannot make clones again. Use existing 1 clones
  Initial partition of walkers 0 1 
  Using Particle by Particle moves
  Walker moves without drift
  Total Sample Size   =512000
  Walker distribution on root = 0 1 
  Using Locality Approximation
===== Memory Usage after the buffer registration =====
Available memory on node 0, free + buffers : 84496 MB
Memory footprint by rank 0 on node 0       : 103 MB
==================================================
====================================================
  SimpleFixedNodeBranch::finalize after a VMC block
    QMC counter        = 7
    time step          = 0.15
    reference energy   = -24.1824
    reference variance = 0.379896
====================================================
  Execution time = 3.1830e+00
</vmc>
<opt stage="setup">
  <log>
   Reading configurations from h5FileRoot F.log.s007
  QMCCostFunction is created with 1 threads.
  Using Nonlocal PP in Opt: NonLocalECP
   Number of samples loaded to each thread : 500 
  VMC Eavg = -2.4171e+01
  VMC Evar = 3.1186e-01
  Total weights = 5.1200e+05
  Execution time = 1.2139e+00
  </log>
</opt>
<opt stage="main" walkers="512000">
  <log>

*****************************************
Building overlap and Hamiltonian matrices
*****************************************

Among totally 82 optimized parameters, largest LM parameter change : 3.5389e-02 at parameter 20

******************************************************************************
Init Cost =  -2.2947e+01    New Cost =  -2.2947e+01  Delta Cost =  -2.5642e-04
******************************************************************************

The new set of parameters is valid. Updating the trial wave function!

*****************************************************************************
Applying the update for shift_i =   1.0000e-02     and shift_s =   3.9062e-03
*****************************************************************************
  Execution time = 5.4740e+00
  </log>
  <optVariables href="F.log.s007.opt.xml">
uu_0 1.5276e-01 1 1  ON 0
uu_1 5.1226e-02 1 1  ON 1
uu_2 -2.0796e-03 1 1  ON 2
uu_3 -2.3304e-02 1 1  ON 3
uu_4 -4.0915e-02 1 1  ON 4
uu_5 -5.7164e-02 1 1  ON 5
uu_6 -6.4854e-02 1 1  ON 6
uu_7 -7.0693e-02 1 1  ON 7
uu_8 -6.0724e-02 1 1  ON 8
uu_9 -2.6835e-02 1 1  ON 9
ud_0 3.6142e-01 1 1  ON 10
ud_1 1.4149e-01 1 1  ON 11
ud_2 1.9156e-02 1 1  ON 12
ud_3 -4.2025e-02 1 1  ON 13
ud_4 -7.0484e-02 1 1  ON 14
ud_5 -8.3732e-02 1 1  ON 15
ud_6 -9.0059e-02 1 1  ON 16
ud_7 -9.9213e-02 1 1  ON 17
ud_8 -9.2404e-02 1 1  ON 18
ud_9 -5.9973e-02 1 1  ON 19
eF_0 -1.0554e+00 1 1  ON 20
eF_1 -9.5648e-01 1 1  ON 21
eF_2 -4.0074e-01 1 1  ON 22
eF_3 2.5230e-01 1 1  ON 23
eF_4 5.6601e-01 1 1  ON 24
eF_5 4.1908e-01 1 1  ON 25
eF_6 4.6089e-01 1 1  ON 26
eF_7 4.2132e-01 1 1  ON 27
eF_8 2.9817e-01 1 1  ON 28
eF_9 7.3469e-02 1 1  ON 29
uuF_0 4.6860e-04 1 1  ON 30
uuF_1 2.3566e-04 1 1  ON 31
uuF_2 -9.3064e-04 1 1  ON 32
uuF_3 -7.0642e-04 1 1  ON 33
uuF_4 -3.1993e-04 1 1  ON 34
uuF_5 1.3800e-04 1 1  ON 35
uuF_6 -5.7315e-04 1 1  ON 36
uuF_7 -8.2534e-05 1 1  ON 37
uuF_8 -2.0313e-04 1 1  ON 38
uuF_9 1.5575e-04 1 1  ON 39
uuF_10 -9.0038e-04 1 1  ON 40
uuF_11 1.5496e-03 1 1  ON 41
uuF_12 -4.3350e-04 1 1  ON 42
uuF_13 9.9943e-04 1 1  ON 43
uuF_14 4.5796e-04 1 1  ON 44
uuF_15 -9.9503e-06 1 1  ON 45
uuF_16 -4.0066e-04 1 1  ON 46
uuF_17 2.8109e-03 1 1  ON 47
uuF_18 -2.9996e-03 1 1  ON 48
uuF_19 8.9320e-04 1 1  ON 49
uuF_20 -4.7789e-04 1 1  ON 50
uuF_21 3.4736e-04 1 1  ON 51
uuF_22 -1.5843e-04 1 1  ON 52
uuF_23 3.1009e-04 1 1  ON 53
uuF_24 -1.3039e-04 1 1  ON 54
uuF_25 3.8391e-05 1 1  ON 55
udF_0 -1.3070e-04 1 1  ON 56
udF_1 5.7837e-04 1 1  ON 57
udF_2 9.9554e-04 1 1  ON 58
udF_3 -4.1216e-04 1 1  ON 59
udF_4 -4.9165e-04 1 1  ON 60
udF_5 9.1276e-05 1 1  ON 61
udF_6 1.2983e-03 1 1  ON 62
udF_7 -3.7070e-04 1 1  ON 63
udF_8 1.5349e-03 1 1  ON 64
udF_9 -5.9011e-04 1 1  ON 65
udF_10 -3.9896e-04 1 1  ON 66
udF_11 -8.8861e-05 1 1  ON 67
udF_12 -8.7547e-04 1 1  ON 68
udF_13 6.5750e-04 1 1  ON 69
udF_14 6.4583e-04 1 1  ON 70
udF_15 2.7026e-05 1 1  ON 71
udF_16 7.0443e-04 1 1  ON 72
udF_17 1.6482e-03 1 1  ON 73
udF_18 -1.4550e-03 1 1  ON 74
udF_19 9.1371e-04 1 1  ON 75
udF_20 -6.4520e-04 1 1  ON 76
udF_21 1.9028e-04 1 1  ON 77
udF_22 -1.5348e-04 1 1  ON 78
udF_23 4.4519e-04 1 1  ON 79
udF_24 -1.4889e-04 1 1  ON 80
udF_25 4.3129e-05 1 1  ON 81
  </optVariables>
   Restore the number of walkers to 1, removing 0 walkers.
</opt>
</optimization-report>
  QMC Execution time = 5.4871e+00 secs
  Reusing QMCFixedSampleLinearOptimize
 Using QMCCostFunction::QMCCostFunction

=========================================================
  Start QMCFixedSampleLinearOptimize
  File Root F.log.s008 append = no 
=========================================================
  Skip QMCDriver::putQMCInfo 
  Resetting Properties of the walkers 1 x 13

=========================================================
  Start VMC
  File Root F.log.s008 append = no 
=========================================================
Using existing walkers 
  Resetting Properties of the walkers 1 x 13

<vmc function="put">
  qmc_counter=7  my_counter=7
  time step      = 1.5000e-01
  blocks         = 300
  steps          = 2
  substeps       = 5
  current        = 0
  target samples = 5.1200e+05
  walkers/mpi    = 1

  stepsbetweensamples = 1
<parameter name="blocks" condition="int">300</parameter>
<parameter name="blocks_between_recompute" condition="int">0</parameter>
<parameter name="check_properties" condition="int">100</parameter>
<parameter name="checkproperties" condition="int">100</parameter>
<parameter name="current" condition="int">0</parameter>
<parameter name="dmcwalkersperthread" condition="real">5.0000e+02</parameter>
<parameter name="maxcpusecs" condition="real">3.6000e+05</parameter>
<parameter name="record_configs" condition="int">0</parameter>
<parameter name="record_walkers" condition="int">1</parameter>
<parameter name="recordconfigs" condition="int">0</parameter>
<parameter name="recordwalkers" condition="int">1</parameter>
<parameter name="rewind" condition="int">0</parameter>
<parameter name="samples" condition="real">5.1200e+05</parameter>
<parameter name="samplesperthread" condition="real">5.0000e+02</parameter>
<parameter name="steps" condition="int">2</parameter>
<parameter name="stepsbetweensamples" condition="int">1</parameter>
<parameter name="store_configs" condition="int">0</parameter>
<parameter name="storeconfigs" condition="int">0</parameter>
<parameter name="sub_steps" condition="int">5</parameter>
<parameter name="substeps" condition="int">5</parameter>
<parameter name="tau" condition="au">1.5000e-01</parameter>
<parameter name="time_step" condition="au">1.5000e-01</parameter>
<parameter name="timestep" condition="au">1.5000e-01</parameter>
<parameter name="use_drift" condition="string">no</parameter>
<parameter name="usedrift" condition="string">no</parameter>
<parameter name="walkers" condition="int">1</parameter>
<parameter name="warmup_steps" condition="int">0</parameter>
<parameter name="warmupsteps" condition="int">0</parameter>
  DumpConfig==false Nothing (configurations, state) will be saved.
  Walker Samples are dumped every 1 steps.
</vmc>
  EstimatorManagerBase::add replace LocalEnergy estimator.
  EstimatorManagerBase::add replace LocalEnergy estimator.
<optimization-report>
<vmc stage="main" blocks="300">
  Cannot make clones again. Use existing 1 clones
  Initial partition of walkers 0 1 
  Using Particle by Particle moves
  Walker moves without drift
  Total Sample Size   =512000
  Walker distribution on root = 0 1 
  Using Locality Approximation
===== Memory Usage after the buffer registration =====
Available memory on node 0, free + buffers : 84493 MB
Memory footprint by rank 0 on node 0       : 105 MB
==================================================
====================================================
  SimpleFixedNodeBranch::finalize after a VMC block
    QMC counter        = 8
    time step          = 0.15
    reference energy   = -24.1629
    reference variance = 0.324249
====================================================
  Execution time = 3.1809e+00
</vmc>
<opt stage="setup">
  <log>
   Reading configurations from h5FileRoot F.log.s008
  QMCCostFunction is created with 1 threads.
  Using Nonlocal PP in Opt: NonLocalECP
   Number of samples loaded to each thread : 500 
  VMC Eavg = -2.4170e+01
  VMC Evar = 3.1258e-01
  Total weights = 5.1200e+05
  Execution time = 1.2085e+00
  </log>
</opt>
<opt stage="main" walkers="512000">
  <log>

*****************************************
Building overlap and Hamiltonian matrices
*****************************************

Among totally 82 optimized parameters, largest LM parameter change : 2.7609e-02 at parameter 20

******************************************************************************
Init Cost =  -2.2946e+01    New Cost =  -2.2946e+01  Delta Cost =  -7.6569e-05
******************************************************************************

The new set of parameters is valid. Updating the trial wave function!

*****************************************************************************
Applying the update for shift_i =   1.0000e-02     and shift_s =   3.9062e-03
*****************************************************************************
  Execution time = 5.4363e+00
  </log>
  <optVariables href="F.log.s008.opt.xml">
uu_0 1.5297e-01 1 1  ON 0
uu_1 5.0620e-02 1 1  ON 1
uu_2 -1.4500e-03 1 1  ON 2
uu_3 -2.2709e-02 1 1  ON 3
uu_4 -4.0813e-02 1 1  ON 4
uu_5 -5.8009e-02 1 1  ON 5
uu_6 -6.6625e-02 1 1  ON 6
uu_7 -7.3060e-02 1 1  ON 7
uu_8 -6.2112e-02 1 1  ON 8
uu_9 -2.7898e-02 1 1  ON 9
ud_0 3.6223e-01 1 1  ON 10
ud_1 1.4249e-01 1 1  ON 11
ud_2 2.0276e-02 1 1  ON 12
ud_3 -4.0701e-02 1 1  ON 13
ud_4 -6.9074e-02 1 1  ON 14
ud_5 -8.2101e-02 1 1  ON 15
ud_6 -8.8340e-02 1 1  ON 16
ud_7 -9.7029e-02 1 1  ON 17
ud_8 -8.9650e-02 1 1  ON 18
ud_9 -6.0346e-02 1 1  ON 19
eF_0 -1.0830e+00 1 1  ON 20
eF_1 -9.8100e-01 1 1  ON 21
eF_2 -4.2563e-01 1 1  ON 22
eF_3 2.3567e-01 1 1  ON 23
eF_4 5.6732e-01 1 1  ON 24
eF_5 4.3908e-01 1 1  ON 25
eF_6 4.8036e-01 1 1  ON 26
eF_7 4.4225e-01 1 1  ON 27
eF_8 3.1868e-01 1 1  ON 28
eF_9 8.7099e-02 1 1  ON 29
uuF_0 4.7008e-04 1 1  ON 30
uuF_1 2.1348e-04 1 1  ON 31
uuF_2 -9.4877e-04 1 1  ON 32
uuF_3 -6.7126e-04 1 1  ON 33
uuF_4 -2.7638e-04 1 1  ON 34
uuF_5 1.4551e-04 1 1  ON 35
uuF_6 -6.4685e-04 1 1  ON 36
uuF_7 -8.8493e-05 1 1  ON 37
uuF_8 -2.2652e-04 1 1  ON 38
uuF_9 2.1211e-04 1 1  ON 39
uuF_10 -8.3541e-04 1 1  ON 40
uuF_11 1.4983e-03 1 1  ON 41
uuF_12 -3.9724e-04 1 1  ON 42
uuF_13 9.6810e-04 1 1  ON 43
uuF_14 4.4735e-04 1 1  ON 44
uuF_15 -1.3889e-05 1 1  ON 45
uuF_16 -5.2721e-04 1 1  ON 46
uuF_17 2.7694e-03 1 1  ON 47
uuF_18 -2.8928e-03 1 1  ON 48
uuF_19 8.3728e-04 1 1  ON 49
uuF_20 -4.2800e-04 1 1  ON 50
uuF_21 3.1896e-04 1 1  ON 51
uuF_22 -1.4309e-04 1 1  ON 52
uuF_23 3.0061e-04 1 1  ON 53
uuF_24 -1.1911e-04 1 1  ON 54
uuF_25 3.3443e-05 1 1  ON 55
udF_0 -1.5698e-04 1 1  ON 56
udF_1 5.4686e-04 1 1  ON 57
udF_2 1.0348e-03 1 1  ON 58
udF_3 -3.5635e-04 1 1  ON 59
udF_4 -4.6808e-04 1 1  ON 60
udF_5 9.8132e-05 1 1  ON 61
udF_6 1.2413e-03 1 1  ON 62
udF_7 -2.6307e-04 1 1  ON 63
udF_8 1.5514e-03 1 1  ON 64
udF_9 -5.3329e-04 1 1  ON 65
udF_10 -3.1760e-04 1 1  ON 66
udF_11 -2.8861e-04 1 1  ON 67
udF_12 -8.5614e-04 1 1  ON 68
udF_13 5.3390e-04 1 1  ON 69
udF_14 6.4020e-04 1 1  ON 70
udF_15 2.6011e-05 1 1  ON 71
udF_16 6.7305e-04 1 1  ON 72
udF_17 1.3703e-03 1 1  ON 73
udF_18 -1.0887e-03 1 1  ON 74
udF_19 8.6098e-04 1 1  ON 75
udF_20 -5.6191e-04 1 1  ON 76
udF_21 1.0516e-04 1 1  ON 77
udF_22 -1.3787e-04 1 1  ON 78
udF_23 4.1376e-04 1 1  ON 79
udF_24 -1.2016e-04 1 1  ON 80
udF_25 3.7445e-05 1 1  ON 81
  </optVariables>
   Restore the number of walkers to 1, removing 0 walkers.
</opt>
</optimization-report>
  QMC Execution time = 5.4492e+00 secs
  Reusing QMCFixedSampleLinearOptimize
 Using QMCCostFunction::QMCCostFunction

=========================================================
  Start QMCFixedSampleLinearOptimize
  File Root F.log.s009 append = no 
=========================================================
  Skip QMCDriver::putQMCInfo 
  Resetting Properties of the walkers 1 x 13

=========================================================
  Start VMC
  File Root F.log.s009 append = no 
=========================================================
Using existing walkers 
  Resetting Properties of the walkers 1 x 13

<vmc function="put">
  qmc_counter=8  my_counter=8
  time step      = 1.5000e-01
  blocks         = 300
  steps          = 2
  substeps       = 5
  current        = 0
  target samples = 5.1200e+05
  walkers/mpi    = 1

  stepsbetweensamples = 1
<parameter name="blocks" condition="int">300</parameter>
<parameter name="blocks_between_recompute" condition="int">0</parameter>
<parameter name="check_properties" condition="int">100</parameter>
<parameter name="checkproperties" condition="int">100</parameter>
<parameter name="current" condition="int">0</parameter>
<parameter name="dmcwalkersperthread" condition="real">5.0000e+02</parameter>
<parameter name="maxcpusecs" condition="real">3.6000e+05</parameter>
<parameter name="record_configs" condition="int">0</parameter>
<parameter name="record_walkers" condition="int">1</parameter>
<parameter name="recordconfigs" condition="int">0</parameter>
<parameter name="recordwalkers" condition="int">1</parameter>
<parameter name="rewind" condition="int">0</parameter>
<parameter name="samples" condition="real">5.1200e+05</parameter>
<parameter name="samplesperthread" condition="real">5.0000e+02</parameter>
<parameter name="steps" condition="int">2</parameter>
<parameter name="stepsbetweensamples" condition="int">1</parameter>
<parameter name="store_configs" condition="int">0</parameter>
<parameter name="storeconfigs" condition="int">0</parameter>
<parameter name="sub_steps" condition="int">5</parameter>
<parameter name="substeps" condition="int">5</parameter>
<parameter name="tau" condition="au">1.5000e-01</parameter>
<parameter name="time_step" condition="au">1.5000e-01</parameter>
<parameter name="timestep" condition="au">1.5000e-01</parameter>
<parameter name="use_drift" condition="string">no</parameter>
<parameter name="usedrift" condition="string">no</parameter>
<parameter name="walkers" condition="int">1</parameter>
<parameter name="warmup_steps" condition="int">0</parameter>
<parameter name="warmupsteps" condition="int">0</parameter>
  DumpConfig==false Nothing (configurations, state) will be saved.
  Walker Samples are dumped every 1 steps.
</vmc>
  EstimatorManagerBase::add replace LocalEnergy estimator.
  EstimatorManagerBase::add replace LocalEnergy estimator.
<optimization-report>
<vmc stage="main" blocks="300">
  Cannot make clones again. Use existing 1 clones
  Initial partition of walkers 0 1 
  Using Particle by Particle moves
  Walker moves without drift
  Total Sample Size   =512000
  Walker distribution on root = 0 1 
  Using Locality Approximation
===== Memory Usage after the buffer registration =====
Available memory on node 0, free + buffers : 84491 MB
Memory footprint by rank 0 on node 0       : 107 MB
==================================================
====================================================
  SimpleFixedNodeBranch::finalize after a VMC block
    QMC counter        = 9
    time step          = 0.15
    reference energy   = -24.1645
    reference variance = 0.305409
====================================================
  Execution time = 3.1496e+00
</vmc>
<opt stage="setup">
  <log>
   Reading configurations from h5FileRoot F.log.s009
  QMCCostFunction is created with 1 threads.
  Using Nonlocal PP in Opt: NonLocalECP
   Number of samples loaded to each thread : 500 
  VMC Eavg = -2.4171e+01
  VMC Evar = 3.2729e-01
  Total weights = 5.1200e+05
  Execution time = 1.1628e+00
  </log>
</opt>
<opt stage="main" walkers="512000">
  <log>

*****************************************
Building overlap and Hamiltonian matrices
*****************************************

Among totally 82 optimized parameters, largest LM parameter change : 2.7449e-02 at parameter 20

******************************************************************************
Init Cost =  -2.2946e+01    New Cost =  -2.2946e+01  Delta Cost =  -1.0629e-04
******************************************************************************

The new set of parameters is valid. Updating the trial wave function!

*****************************************************************************
Applying the update for shift_i =   1.0000e-02     and shift_s =   3.9062e-03
*****************************************************************************
  Execution time = 5.2869e+00
  </log>
  <optVariables href="F.log.s009.opt.xml">
uu_0 1.5134e-01 1 1  ON 0
uu_1 4.9960e-02 1 1  ON 1
uu_2 -2.1785e-03 1 1  ON 2
uu_3 -2.3175e-02 1 1  ON 3
uu_4 -4.0542e-02 1 1  ON 4
uu_5 -5.7857e-02 1 1  ON 5
uu_6 -6.7101e-02 1 1  ON 6
uu_7 -7.4867e-02 1 1  ON 7
uu_8 -6.4521e-02 1 1  ON 8
uu_9 -2.9890e-02 1 1  ON 9
ud_0 3.6456e-01 1 1  ON 10
ud_1 1.4438e-01 1 1  ON 11
ud_2 2.1803e-02 1 1  ON 12
ud_3 -3.9444e-02 1 1  ON 13
ud_4 -6.7971e-02 1 1  ON 14
ud_5 -8.1552e-02 1 1  ON 15
ud_6 -8.8028e-02 1 1  ON 16
ud_7 -9.7726e-02 1 1  ON 17
ud_8 -8.9439e-02 1 1  ON 18
ud_9 -6.1049e-02 1 1  ON 19
eF_0 -1.1104e+00 1 1  ON 20
eF_1 -1.0043e+00 1 1  ON 21
eF_2 -4.4660e-01 1 1  ON 22
eF_3 2.2193e-01 1 1  ON 23
eF_4 5.6669e-01 1 1  ON 24
eF_5 4.5658e-01 1 1  ON 25
eF_6 4.9347e-01 1 1  ON 26
eF_7 4.6022e-01 1 1  ON 27
eF_8 3.4127e-01 1 1  ON 28
eF_9 1.0155e-01 1 1  ON 29
uuF_0 4.5604e-04 1 1  ON 30
uuF_1 2.4159e-04 1 1  ON 31
uuF_2 -8.4986e-04 1 1  ON 32
uuF_3 -6.7868e-04 1 1  ON 33
uuF_4 -3.1602e-04 1 1  ON 34
uuF_5 1.5022e-04 1 1  ON 35
uuF_6 -5.4995e-04 1 1  ON 36
uuF_7 -4.4626e-05 1 1  ON 37
uuF_8 -5.8701e-05 1 1  ON 38
uuF_9 1.4567e-04 1 1  ON 39
uuF_10 -8.4778e-04 1 1  ON 40
uuF_11 1.2825e-03 1 1  ON 41
uuF_12 -4.6226e-04 1 1  ON 42
uuF_13 9.5867e-04 1 1  ON 43
uuF_14 4.8595e-04 1 1  ON 44
uuF_15 -8.7010e-06 1 1  ON 45
uuF_16 -3.3423e-04 1 1  ON 46
uuF_17 2.5775e-03 1 1  ON 47
uuF_18 -2.5144e-03 1 1  ON 48
uuF_19 8.3347e-04 1 1  ON 49
uuF_20 -4.6008e-04 1 1  ON 50
uuF_21 2.2943e-04 1 1  ON 51
uuF_22 -1.3387e-04 1 1  ON 52
uuF_23 3.0937e-04 1 1  ON 53
uuF_24 -9.5207e-05 1 1  ON 54
uuF_25 2.9171e-05 1 1  ON 55
udF_0 -1.2471e-04 1 1  ON 56
udF_1 5.9066e-04 1 1  ON 57
udF_2 1.0059e-03 1 1  ON 58
udF_3 -4.1028e-04 1 1  ON 59
udF_4 -5.0279e-04 1 1  ON 60
udF_5 1.0296e-04 1 1  ON 61
udF_6 1.3287e-03 1 1  ON 62
udF_7 -3.8366e-04 1 1  ON 63
udF_8 1.5710e-03 1 1  ON 64
udF_9 -6.2322e-04 1 1  ON 65
udF_10 -4.1352e-04 1 1  ON 66
udF_11 -8.6118e-05 1 1  ON 67
udF_12 -9.0745e-04 1 1  ON 68
udF_13 6.9409e-04 1 1  ON 69
udF_14 6.6783e-04 1 1  ON 70
udF_15 2.9656e-05 1 1  ON 71
udF_16 7.6747e-04 1 1  ON 72
udF_17 1.6966e-03 1 1  ON 73
udF_18 -1.5131e-03 1 1  ON 74
udF_19 9.6260e-04 1 1  ON 75
udF_20 -6.8019e-04 1 1  ON 76
udF_21 2.0548e-04 1 1  ON 77
udF_22 -1.6700e-04 1 1  ON 78
udF_23 4.6642e-04 1 1  ON 79
udF_24 -1.5988e-04 1 1  ON 80
udF_25 4.8944e-05 1 1  ON 81
  </optVariables>
   Restore the number of walkers to 1, removing 0 walkers.
</opt>
</optimization-report>
  QMC Execution time = 5.4445e+00 secs
  Reusing QMCFixedSampleLinearOptimize
 Using QMCCostFunction::QMCCostFunction

=========================================================
  Start QMCFixedSampleLinearOptimize
  File Root F.log.s010 append = no 
=========================================================
  Skip QMCDriver::putQMCInfo 
[...]
    QMC counter        = 20
    time step          = 0.15
    reference energy   = -24.1835
    reference variance = 0.314766
====================================================
  Execution time = 2.7322e+00
</vmc>
<opt stage="setup">
  <log>
   Reading configurations from h5FileRoot F.log.s020
  QMCCostFunction is created with 1 threads.
  Using Nonlocal PP in Opt: NonLocalECP
   Number of samples loaded to each thread : 500 
  VMC Eavg = -2.4171e+01
  VMC Evar = 3.0948e-01
  Total weights = 5.1200e+05
  Execution time = 1.1302e+00
  </log>
</opt>
<opt stage="main" walkers="512000">
  <log>

*****************************************
Building overlap and Hamiltonian matrices
*****************************************

Among totally 82 optimized parameters, largest LM parameter change : 1.7757e-02 at parameter 22

******************************************************************************
Init Cost =  -2.2947e+01    New Cost =  -2.2947e+01  Delta Cost =  -7.0596e-05
******************************************************************************

The new set of parameters is valid. Updating the trial wave function!

*****************************************************************************
Applying the update for shift_i =   1.0000e-02     and shift_s =   3.9062e-03
*****************************************************************************
  Execution time = 4.7478e+00
  </log>
  <optVariables href="F.log.s020.opt.xml">
uu_0 1.5485e-01 1 1  ON 0
uu_1 5.3812e-02 1 1  ON 1
uu_2 -4.1119e-05 1 1  ON 2
uu_3 -2.6861e-02 1 1  ON 3
uu_4 -4.8272e-02 1 1  ON 4
uu_5 -6.8384e-02 1 1  ON 5
uu_6 -7.9535e-02 1 1  ON 6
uu_7 -8.9811e-02 1 1  ON 7
uu_8 -8.5882e-02 1 1  ON 8
uu_9 -5.8791e-02 1 1  ON 9
ud_0 3.8463e-01 1 1  ON 10
ud_1 1.6431e-01 1 1  ON 11
ud_2 3.8622e-02 1 1  ON 12
ud_3 -2.7502e-02 1 1  ON 13
ud_4 -5.9502e-02 1 1  ON 14
ud_5 -7.5734e-02 1 1  ON 15
ud_6 -8.4825e-02 1 1  ON 16
ud_7 -9.7561e-02 1 1  ON 17
ud_8 -9.5433e-02 1 1  ON 18
ud_9 -7.2664e-02 1 1  ON 19
eF_0 -1.3283e+00 1 1  ON 20
eF_1 -1.2006e+00 1 1  ON 21
eF_2 -6.4132e-01 1 1  ON 22
eF_3 7.0644e-02 1 1  ON 23
eF_4 5.3258e-01 1 1  ON 24
eF_5 5.7744e-01 1 1  ON 25
eF_6 6.1230e-01 1 1  ON 26
eF_7 6.1484e-01 1 1  ON 27
eF_8 5.1944e-01 1 1  ON 28
eF_9 2.7992e-01 1 1  ON 29
uuF_0 3.7882e-04 1 1  ON 30
uuF_1 2.1330e-04 1 1  ON 31
uuF_2 -7.0490e-04 1 1  ON 32
uuF_3 -5.6254e-04 1 1  ON 33
uuF_4 -2.6466e-04 1 1  ON 34
uuF_5 1.8337e-04 1 1  ON 35
uuF_6 -5.0953e-04 1 1  ON 36
uuF_7 -6.4991e-05 1 1  ON 37
uuF_8 3.4563e-06 1 1  ON 38
uuF_9 1.9499e-04 1 1  ON 39
uuF_10 -7.0487e-04 1 1  ON 40
uuF_11 9.8423e-04 1 1  ON 41
uuF_12 -4.2773e-04 1 1  ON 42
uuF_13 7.5436e-04 1 1  ON 43
uuF_14 4.1853e-04 1 1  ON 44
uuF_15 -4.4817e-07 1 1  ON 45
uuF_16 -2.4914e-04 1 1  ON 46
uuF_17 1.9813e-03 1 1  ON 47
uuF_18 -1.8250e-03 1 1  ON 48
uuF_19 6.9455e-04 1 1  ON 49
uuF_20 -3.3526e-04 1 1  ON 50
uuF_21 1.0084e-04 1 1  ON 51
uuF_22 -9.7595e-05 1 1  ON 52
uuF_23 2.5749e-04 1 1  ON 53
uuF_24 -4.1812e-05 1 1  ON 54
uuF_25 1.3565e-05 1 1  ON 55
udF_0 -2.1495e-04 1 1  ON 56
udF_1 5.3406e-04 1 1  ON 57
udF_2 1.1886e-03 1 1  ON 58
udF_3 -2.7259e-04 1 1  ON 59
udF_4 -4.4712e-04 1 1  ON 60
udF_5 1.3409e-04 1 1  ON 61
udF_6 1.2933e-03 1 1  ON 62
udF_7 -2.6391e-04 1 1  ON 63
udF_8 1.7076e-03 1 1  ON 64
udF_9 -5.1611e-04 1 1  ON 65
udF_10 -2.2533e-04 1 1  ON 66
udF_11 -5.5772e-04 1 1  ON 67
udF_12 -8.7146e-04 1 1  ON 68
udF_13 4.4569e-04 1 1  ON 69
udF_14 6.2292e-04 1 1  ON 70
udF_15 3.4727e-05 1 1  ON 71
udF_16 7.1973e-04 1 1  ON 72
udF_17 1.0371e-03 1 1  ON 73
udF_18 -6.1524e-04 1 1  ON 74
udF_19 7.8117e-04 1 1  ON 75
udF_20 -4.9903e-04 1 1  ON 76
udF_21 2.9127e-05 1 1  ON 77
udF_22 -1.1846e-04 1 1  ON 78
udF_23 4.0449e-04 1 1  ON 79
udF_24 -9.5420e-05 1 1  ON 80
udF_25 3.0610e-05 1 1  ON 81
  </optVariables>
   Restore the number of walkers to 1, removing 0 walkers.
</opt>
</optimization-report>
  QMC Execution time = 4.7608e+00 secs

=========================================================
  Start VMC
  File Root F.log.s021 append = no 
=========================================================
  Using the current 1 walkers.
  Total number of walkers: 1.0240e+03
  Total weight: 1.0240e+03
  Resetting Properties of the walkers 1 x 13

<vmc function="put">
  qmc_counter=0  my_counter=0
  time step      = 1.5000e-01
  blocks         = 200
  steps          = 1
  substeps       = 30
  current        = 0
  target samples = 4.0960e+03
  walkers/mpi    = 1

  stepsbetweensamples = 50
<parameter name="blocks" condition="int">200</parameter>
<parameter name="blocks_between_recompute" condition="int">0</parameter>
<parameter name="check_properties" condition="int">100</parameter>
<parameter name="checkproperties" condition="int">100</parameter>
<parameter name="current" condition="int">0</parameter>
<parameter name="dmcwalkersperthread" condition="real">4.0000e+00</parameter>
<parameter name="maxcpusecs" condition="real">3.6000e+05</parameter>
<parameter name="record_configs" condition="int">0</parameter>
<parameter name="record_walkers" condition="int">50</parameter>
<parameter name="recordconfigs" condition="int">0</parameter>
<parameter name="recordwalkers" condition="int">50</parameter>
<parameter name="rewind" condition="int">0</parameter>
<parameter name="samples" condition="real">4.0960e+03</parameter>
<parameter name="samplesperthread" condition="real">4.0000e+00</parameter>
<parameter name="steps" condition="int">1</parameter>
<parameter name="stepsbetweensamples" condition="int">50</parameter>
<parameter name="store_configs" condition="int">0</parameter>
<parameter name="storeconfigs" condition="int">0</parameter>
<parameter name="sub_steps" condition="int">30</parameter>
<parameter name="substeps" condition="int">30</parameter>
<parameter name="tau" condition="au">1.5000e-01</parameter>
<parameter name="time_step" condition="au">1.5000e-01</parameter>
<parameter name="timestep" condition="au">1.5000e-01</parameter>
<parameter name="use_drift" condition="string">no</parameter>
<parameter name="usedrift" condition="string">no</parameter>
<parameter name="walkers" condition="int">1</parameter>
<parameter name="warmup_steps" condition="int">100</parameter>
<parameter name="warmupsteps" condition="int">100</parameter>
  DumpConfig==false Nothing (configurations, state) will be saved.
  Walker Samples are dumped every 50 steps.
</vmc>
  EstimatorManagerBase::add replace LocalEnergy estimator.
  Cannot make clones again. Use existing 1 clones
  Initial partition of walkers 0 1 

  Using Particle by Particle moves
  Walker moves without drift
  Total Sample Size   =4096
  Walker distribution on root = 0 1 
  Using Locality Approximation
===== Memory Usage after the buffer registration =====
Available memory on node 0, free + buffers : 84450 MB
Memory footprint by rank 0 on node 0       : 134 MB
==================================================
  Anonymous Buffer size per walker : 2688 Bytes.
MEMORY increase 0 MB VMC::resetRun
====================================================
  SimpleFixedNodeBranch::finalize after a VMC block
    QMC counter        = 21
    time step          = 0.15
    reference energy   = -24.1592
    reference variance = 0.196775
====================================================
  QMC Execution time = 3.2174e+00 secs

=========================================================
  Start DMC
  File Root F.log.s022 append = no 
=========================================================
Using existing walkers 
  Resetting Properties of the walkers 1 x 13
  EstimatorManagerBase::add replace LocalEnergy estimator.
  Cannot make clones again. Use existing 1 clones
  Total number of walkers: 4.0960e+03
  Total weight: 4.0960e+03
  Creating WalkerController: target  number of walkers = 4096
  Using WalkerControlMPI for dynamic population control.
  START ALL OVER 
  WalkerControlBase parameters 
    maxCopy = 2
    Max Walkers per MPI rank 9
    Min Walkers per MPI rank 1
    Using non-blocking send/recv
  QMC counter      = 22
  time step        = 2.0000e-02
  effective time step = 2.0000e-02
  trial energy     = -2.4159e+01
  reference energy = -2.4159e+01
  Feedback = 1.0000e+00
  reference variance = 1.9677e-01
  target walkers = 4096
  branching cutoff scheme classic
  branch cutoff = 5.0000e+01 7.5000e+01
  Max and minimum walkers per node= 9 1
  QMC Status (BranchMode) = 0000001101
  Initial partition of walkers on a node: 0 4 
  Updates by particle-by-particle moves
  DMC moves are rejected when a node crossing is detected
  Using Non-local T-moves v0, M. Casula, PRB 74, 161102(R) (2006)
===== Memory Usage after the buffer registration =====
Available memory on node 0, free + buffers : 84450 MB
Memory footprint by rank 0 on node 0       : 134 MB
==================================================
SimpleFixedNodeBranch::checkParameters 
  Average Energy of a population  = -24.132
  Energy Variance = 4.43047

  Fluctuating population
  Persistent walkers are killed after 1 MC sweeps
  BranchInterval = 1
  Steps per block = 50
  Number of blocks = 70

  DMC Engine Initialization = 2.9704e-02 secs

 Warmup is completed after 100

  TauEff     = 1.9072e-02
 TauEff/Tau = 9.5362e-01
  Etrial     = -2.4085e+01
 Running average of energy = -2.4186e+01
                  Variance = 3.8201e-01
branch cutoff = 1.0000e+01 1.5000e+01
====================================================
  SimpleFixedNodeBranch::finalize after a DMC block
    QMC counter                   = 22
    time step                     = 0.02
    effective time step           = 0.0190775
    trial energy                  = -24.1831
    reference energy              = -24.1858
    reference variance            = 0.382009
    target walkers                = 4096
    branch cutoff                 = 10 15
    Max and minimum walkers per node= 9 1
    Feedback                      = 1
    QMC Status (BranchMode)       = 0000001111
====================================================
  QMC Execution time = 3.8568e+01 secs
  Reusing DMC
BRANCH resetRun
 SimpleFixedNodeBranch::resetRun detected changes in <parameter>'s 
 BranchMode : 0000001111 0000001111
  WalkerControlBase parameters 
    maxCopy = 2
    Max Walkers per MPI rank 9
    Min Walkers per MPI rank 1
    Using non-blocking send/recv
 iParam (old):                  0                 1                22              4096                 9                 1                 1                 0
 iParam (new):                100                 1                22              4096                 9                 1                 1                 0
 vParam (old):   2.0000000000e-02  1.9077450329e-02 -2.4183139563e+01 -2.4185828722e+01 -2.4184120954e+01  1.5000000000e+01  1.0000000000e+01  2.0000000000e-01  3.8200916646e-01 -8.2256001776e+04  3.4010000000e+03  1.0000000000e+00  1.0000000000e+01  1.0000000000e+00  1.0000000000e+00  1.0000000000e+00  1.0000000000e+00
 vParam (new):   1.0000000000e-02  1.9077450329e-02 -2.4183139563e+01 -2.4185828722e+01 -2.4184120954e+01  1.5000000000e+01  1.0000000000e+01  2.0000000000e-01  3.8200916646e-01 -8.2256001776e+04  3.4010000000e+03  1.0000000000e+00  1.0000000000e+01  1.0000000000e+00  1.0000000000e+00  1.0000000000e+00  1.0000000000e+00

 Using branching cutoff scheme classic
SimpleFixedNodeBranch::checkParameters 
  Average Energy of a population  = -24.1834
  Energy Variance = 0.377472

  Using Non-local T-moves v0, M. Casula, PRB 74, 161102(R) (2006)
===== Memory Usage after the buffer registration =====
Available memory on node 0, free + buffers : 84440 MB
Memory footprint by rank 0 on node 0       : 136 MB
==================================================

=========================================================
  Start DMC
  File Root F.log.s023 append = no 
=========================================================
Using existing walkers 
  Resetting Properties of the walkers 1 x 13
  EstimatorManagerBase::add replace LocalEnergy estimator.
  Cannot make clones again. Use existing 1 clones
SimpleFixedNodeBranch::checkParameters 
  Average Energy of a population  = -24.0564
  Energy Variance = 8.82711

  Fluctuating population
  Persistent walkers are killed after 1 MC sweeps
  BranchInterval = 1
  Steps per block = 100
  Number of blocks = 90

  DMC Engine Initialization = 1.3530254364e-03 secs

 Warmup is completed after 100

  TauEff     = 9.8046865285e-03
 TauEff/Tau = 9.8046865285e-01
  Etrial     = -2.4124031069e+01
 Running average of energy = -2.4180220562e+01
                  Variance = 4.2903010148e-01
branch cutoff = 1.0000000000e+01 1.5000000000e+01
====================================================
  SimpleFixedNodeBranch::finalize after a DMC block
    QMC counter                   = 23
    time step                     = 0.01
    effective time step           = 0.00980343
    trial energy                  = -24.1871
    reference energy              = -24.1839
    reference variance            = 0.42903
    target walkers                = 4096
    branch cutoff                 = 10 15
    Max and minimum walkers per node= 9 1
    Feedback                      = 1
    QMC Status (BranchMode)       = 0000001111
====================================================
  QMC Execution time = 9.9250e+01 secs
  Reusing DMC
BRANCH resetRun
 SimpleFixedNodeBranch::resetRun detected changes in <parameter>'s 
 BranchMode : 0000001111 0000001111
  WalkerControlBase parameters 
    maxCopy = 2
    Max Walkers per MPI rank 9
    Min Walkers per MPI rank 1
    Using non-blocking send/recv
 iParam (old):                  0                 1                23              4096                 9                 1                 1                 0
 iParam (new):                200                 1                23              4096                 9                 1                 1                 0
 vParam (old):   1.0000000000e-02  9.8034323834e-03 -2.4187104587e+01 -2.4183935785e+01 -2.4185025438e+01  1.5000000000e+01  1.0000000000e+01  2.0000000000e-01  4.2903010148e-01 -2.1526121351e+05  8.9010000000e+03  1.0000000000e+00  1.0000000000e+01  1.0000000000e+00  1.0000000000e+00  1.0000000000e+00  1.0000000000e+00
 vParam (new):   5.0000000000e-03  9.8034323834e-03 -2.4187104587e+01 -2.4183935785e+01 -2.4185025438e+01  1.5000000000e+01  1.0000000000e+01  2.0000000000e-01  4.2903010148e-01 -2.1526121351e+05  8.9010000000e+03  1.0000000000e+00  1.0000000000e+01  1.0000000000e+00  1.0000000000e+00  1.0000000000e+00  1.0000000000e+00

 Using branching cutoff scheme classic
SimpleFixedNodeBranch::checkParameters 
  Average Energy of a population  = -24.1843
  Energy Variance = 0.314151

  Using Non-local T-moves v0, M. Casula, PRB 74, 161102(R) (2006)
===== Memory Usage after the buffer registration =====
Available memory on node 0, free + buffers : 84432 MB
Memory footprint by rank 0 on node 0       : 138 MB
==================================================

=========================================================
  Start DMC
  File Root F.log.s024 append = no 
=========================================================
Using existing walkers 
  Resetting Properties of the walkers 1 x 13
  EstimatorManagerBase::add replace LocalEnergy estimator.
  Cannot make clones again. Use existing 1 clones
SimpleFixedNodeBranch::checkParameters 
  Average Energy of a population  = -24.0726
  Energy Variance = 4.84706

  Fluctuating population
  Persistent walkers are killed after 1 MC sweeps
  BranchInterval = 1
  Steps per block = 200
  Number of blocks = 110

  DMC Engine Initialization = 8.6593627930e-04 secs

 Warmup is completed after 200

  TauEff     = 4.9601876749e-03
 TauEff/Tau = 9.9203753498e-01
  Etrial     = -2.4191782543e+01
 Running average of energy = -2.4183854664e+01
                  Variance = 3.6700388089e-01
branch cutoff = 1.0000000000e+01 1.5000000000e+01
====================================================
  SimpleFixedNodeBranch::finalize after a DMC block
    QMC counter                   = 24
    time step                     = 0.005
    effective time step           = 0.00495965
    trial energy                  = -24.1917
    reference energy              = -24.1824
    reference variance            = 0.367004
    target walkers                = 4096
    branch cutoff                 = 10 15
    Max and minimum walkers per node= 9 1
    Feedback                      = 1
    QMC Status (BranchMode)       = 0000001111
====================================================
  QMC Execution time = 2.4254e+02 secs
  Reusing DMC
BRANCH resetRun
 SimpleFixedNodeBranch::resetRun detected changes in <parameter>'s 
 BranchMode : 0000001111 0000001111
  WalkerControlBase parameters 
    maxCopy = 2
    Max Walkers per MPI rank 9
    Min Walkers per MPI rank 1
    Using non-blocking send/recv
 iParam (old):                  0                 1                24              4096                 9                 1                 1                 0
 iParam (new):                400                 1                24              4096                 9                 1                 1                 0
 vParam (old):   5.0000000000e-03  4.9596455504e-03 -2.4191650860e+01 -2.4182416286e+01 -2.4180905073e+01  1.5000000000e+01  1.0000000000e+01  2.0000000000e-01  3.6700388089e-01 -5.2720085594e+05  2.1801000000e+04  1.0000000000e+00  1.0000000000e+01  1.0000000000e+00  1.0000000000e+00  1.0000000000e+00  1.0000000000e+00
 vParam (new):   2.5000000000e-03  4.9596455504e-03 -2.4191650860e+01 -2.4182416286e+01 -2.4180905073e+01  1.5000000000e+01  1.0000000000e+01  2.0000000000e-01  3.6700388089e-01 -5.2720085594e+05  2.1801000000e+04  1.0000000000e+00  1.0000000000e+01  1.0000000000e+00  1.0000000000e+00  1.0000000000e+00  1.0000000000e+00

 Using branching cutoff scheme classic
SimpleFixedNodeBranch::checkParameters 
  Average Energy of a population  = -24.1805
  Energy Variance = 0.234379

  Using Non-local T-moves v0, M. Casula, PRB 74, 161102(R) (2006)
===== Memory Usage after the buffer registration =====
Available memory on node 0, free + buffers : 84421 MB
Memory footprint by rank 0 on node 0       : 140 MB
==================================================

=========================================================
  Start DMC
  File Root F.log.s025 append = no 
=========================================================
Using existing walkers 
  Resetting Properties of the walkers 1 x 13
  EstimatorManagerBase::add replace LocalEnergy estimator.
  Cannot make clones again. Use existing 1 clones
SimpleFixedNodeBranch::checkParameters 
  Average Energy of a population  = -24.0269
  Energy Variance = 6.83572

  Fluctuating population
  Persistent walkers are killed after 1 MC sweeps
  BranchInterval = 1
  Steps per block = 400
  Number of blocks = 130

  DMC Engine Initialization = 1.4579296112e-03 secs

 Warmup is completed after 400

  TauEff     = 2.4918659545e-03
 TauEff/Tau = 9.9674638180e-01
  Etrial     = -2.4085445973e+01
 Running average of energy = -2.4181377175e+01
                  Variance = 3.4348834231e-01
branch cutoff = 1.0000000000e+01 1.5000000000e+01
====================================================
  SimpleFixedNodeBranch::finalize after a DMC block
    QMC counter                   = 25
    time step                     = 0.0025
    effective time step           = 0.00249194
    trial energy                  = -24.1766
    reference energy              = -24.182
    reference variance            = 0.343488
    target walkers                = 4096
    branch cutoff                 = 10 15
    Max and minimum walkers per node= 9 1
    Feedback                      = 1
    QMC Status (BranchMode)       = 0000001111
====================================================
  QMC Execution time = 5.7027e+02 secs
  Total Execution time = 1.0598e+03 secs

=========================================================
  A new xml input file : F.log.s025.cont.xml
TACC:  Shutdown complete. Exiting. 
