
 Primary working directories    : /global/cscratch1/sd/aannabe
 Secondary working directories  : /global/cscratch1/sd/aannabe
 Wavefunction directory         : /global/homes/a/aannabe/wfu/
 Main file repository           : /global/cscratch1/sd/aannabe/

 SHA1      : 2873118e99aab1bc19f5b6fc1784693c06d15c95
 NAME      : 2015.1.8
 ARCHNAME  : linux/x86_64
 FC        : /opt/cray/pe/craype/2.5.5/bin/ftn
 BLASLIB   : -Wl,-_start-group /opt/intel/compilers_and_libraries_2016.3.210/linux/mkl/lib/intel64/libmkl_intel_ilp64.a /opt/intel/compilers_and_libraries_2016.3.210/linux/mkl/lib/intel64/libmkl_intel_thread.a /opt/intel/compilers_and_libraries_2016.3.210/linux/mkl/lib/intel64/libmkl_core.a -Wl,-_end-group
 id        : lbl

 Nodes     nprocs
 nid00482     1

 Using customized tuning parameters: mindgm=8; mindgv=16; mindgc=4; mindgr=1; noblas=0; minvec=7
 default implementation of scratch files=df  

 ***,V
 memory,8,g
 gthresh,twoint=1.e-12
 
 gprint,basis,orbitals
 gexpec,ekin,pot
 
 angstrom
 geometry={
 1                                                                               ! Number of atoms
 V 0.0 0.0 0.0
 }
 
 basis={
 Including file /global/homes/a/aannabe/docs/totals/pps/V.pp
 Including file /global/homes/a/aannabe/docs/totals/basis/aug-cc-pVnZ/V_tz.basis
 }
 
 {hf
 wf,13,6,3
 occ,4,1,1,0,1,1,0,0
 open,3.1,4.1,1.6
 sym,1,1,1
 }
 scf(i)=energy
 
 _CC_NORM_MAX=2.0
  !NOTE: Perturbative MRCC works only with UHF reference. So, here we will trick MRCC by doing zero UHF iteration right after ROHF.
 
 {uhf
 wf,13,6,3
 occ,4,1,1,0,1,1,0,0
 open,3.1,4.1,1.6
 sym,1,1,1
 maxit,0
 }
 scf(i)=energy
 
 {mrcc,method=CCSDT(Q)
 orbital,ignore_error=1                                                          !Ignore the fact that UHF WF is not converged
 maxit,100
 core
 }
 posthf(i)=energy
 
 table,scf,posthf,ekin,pot
 save,3.csv,new
 
 

 Variables initialized (889), CPU time= 0.00 sec
 Commands  initialized (702), CPU time= 0.00 sec, 572 directives.
 Default parameters read. Elapsed time= 0.11 sec

 Checking input...
 Passed
1


                                         ***  PROGRAM SYSTEM MOLPRO  ***
                                       Copyright, TTI GmbH Stuttgart, 2015
                                    Version 2015.1 linked Sep  7 2016 23:09:38


 **********************************************************************************************************************************
 LABEL *   V                                                                             
  64 bit serial version                                                                  DATE: 15-Jun-18          TIME: 14:56:26  
 **********************************************************************************************************************************

 SHA1:             2873118e99aab1bc19f5b6fc1784693c06d15c95
 **********************************************************************************************************************************

 THRESHOLDS:

 ZERO    =  1.00D-12  ONEINT  =  1.00D-12  TWOINT  =  1.00D-12  PREFAC  =  1.00D-14  LOCALI  =  1.00D-09  EORDER  =  1.00D-04
 ENERGY  =  0.00D+00  ETEST   =  0.00D+00  EDENS   =  0.00D+00  THRDEDEF=  1.00D-06  GRADIENT=  1.00D-02  STEP    =  1.00D-03
 ORBITAL =  1.00D-05  CIVEC   =  1.00D-05  COEFF   =  1.00D-04  PRINTCI =  5.00D-02  PUNCHCI =  9.90D+01  OPTGRAD =  3.00D-04
 OPTENERG=  1.00D-06  OPTSTEP =  3.00D-04  THRGRAD =  1.00D-10  COMPRESS=  1.00D-11  VARMIN  =  1.00D-07  VARMAX  =  1.00D-03
 THRDOUB =  0.00D+00  THRDIV  =  1.00D-05  THRRED  =  1.00D-07  THRPSP  =  1.00D+00  THRDC   =  1.00D-10  THRCS   =  1.00D-10
 THRNRM  =  1.00D-08  THREQ   =  0.00D+00  THRDE   =  1.00D+00  THRREF  =  1.00D-05  SPARFAC =  1.00D+00  THRDLP  =  1.00D-07
 THRDIA  =  1.00D-10  THRDLS  =  1.00D-07  THRGPS  =  0.00D+00  THRKEX  =  0.00D+00  THRDIS  =  2.00D-01  THRVAR  =  1.00D-10
 THRLOC  =  1.00D-06  THRGAP  =  1.00D-06  THRLOCT = -1.00D+00  THRGAPT = -1.00D+00  THRORB  =  1.00D-06  THRMLTP =  0.00D+00
 THRCPQCI=  1.00D-10  KEXTA   =  0.00D+00  THRCOARS=  0.00D+00  SYMTOL  =  1.00D-06  GRADTOL =  1.00D-06  THROVL  =  1.00D-08
 THRORTH =  1.00D-08  GRID    =  1.00D-06  GRIDMAX =  1.00D-03  DTMAX   =  0.00D+00  THROCCDE=  1.00D-01  THROCCDE=  1.00D-01



 ZUNIT=ANG
 

Geometry recognized as XYZ


 Variable memory set to 8000000000 words,  buffer space   230000 words

 SETTING BASIS          =    USERDEF


 Recomputing integrals since basis changed


 Using spherical harmonics



 PROGRAM * SEWARD (Integral evaluation for generally contracted gaussian basis sets)     Author: Roland Lindh, 1990

 Geometry written to block  1 of record 700

 Orientation using atomic masses  
 Molecule type: Atom
 Symmetry elements: X,Y,Z
 Rotational constants:       0.0000000      0.0000000      0.0000000 GHz  (calculated with average atomic masses)

 Point group  D2h 



 ATOMIC COORDINATES

 NR  ATOM    CHARGE       X              Y              Z

   1  V      13.00    0.000000000    0.000000000    0.000000000


          V   CORE POTENTIAL

          d POTENTIAL

 POWERS             1              3              2              2
 EXPONENTIALS   20.32169       19.59698       17.33147       5.123207    
 COEFFICIENTS   13.00000       264.1820      -115.2929     -0.6628873    

          s - d POTENTIAL

 POWERS             2              2
 EXPONENTIALS   15.12502       6.298989    
 COEFFICIENTS   195.5671       22.88643    

          p - d POTENTIAL

 POWERS             2              2
 EXPONENTIALS   15.93855       5.740063    
 COEFFICIENTS   126.4212       16.03597    


 BASIS DATA

   Nr Sym  Nuc  Type         Exponents   Contraction coefficients

    1.1 Ag    1  1s          68.577621     0.000804   -0.000177   -0.000583   -0.000765    0.000000
    2.1 Ag                   34.937147    -0.011594    0.002791    0.009570    0.014529    0.000000
    3.1 Ag                   17.939491     0.092209   -0.023650   -0.085606   -0.139618    0.000000
    4.1 Ag                   11.262123    -0.045477    0.012504    0.048426    0.063073    0.000000
    5.1 Ag                    6.776264    -0.287983    0.078761    0.331239    0.704193    0.000000
                              3.524091    -0.217648    0.054974    0.140352   -0.011602    0.000000
                              1.938421     0.407509   -0.118955   -0.907962   -2.311604    0.000000
                              0.927153     0.658193   -0.245341   -0.503878    0.768269    0.000000
                              0.448420     0.255234   -0.222959    0.398938    2.168920    0.000000
                              0.209668     0.008620    0.047809    0.971131   -1.062671    0.000000
                              0.103660     0.002734    0.415374    0.423999   -1.218151    0.000000
                              0.050630    -0.001161    0.540880   -0.628646    0.340809    0.000000
                              0.024201     0.000294    0.183421   -0.467495    0.713322    1.000000
    6.1 Ag    1  1s           0.012000     1.000000
    7.1 Ag    1  3d0         89.989649     0.000051
                             33.132961     0.004804
                             15.879656     0.029485
                              7.465803     0.086249
                              3.551993     0.179728
                              1.728185     0.261850
                              0.850498     0.291794
                              0.417673     0.259356
                              0.201523     0.174944
                              0.100711     0.062278
                              0.058959     0.027653
    8.1 Ag    1  3d2+        89.989649     0.000051
                             33.132961     0.004804
                             15.879656     0.029485
                              7.465803     0.086249
                              3.551993     0.179728
                              1.728185     0.261850
                              0.850498     0.291794
                              0.417673     0.259356
                              0.201523     0.174944
                              0.100711     0.062278
                              0.058959     0.027653
    9.1 Ag    1  3d0         89.989649    -0.000038
                             33.132961    -0.004590
                             15.879656    -0.027563
                              7.465803    -0.082775
                              3.551993    -0.173494
                              1.728185    -0.236188
                              0.850498    -0.149226
                              0.417673     0.044145
                              0.201523     0.390500
                              0.100711     0.203064
                              0.058959     0.398002
   10.1 Ag    1  3d2+        89.989649    -0.000038
                             33.132961    -0.004590
                             15.879656    -0.027563
                              7.465803    -0.082775
                              3.551993    -0.173494
                              1.728185    -0.236188
                              0.850498    -0.149226
                              0.417673     0.044145
                              0.201523     0.390500
                              0.100711     0.203064
                              0.058959     0.398002
   11.1 Ag    1  3d0         89.989649     0.000128
                             33.132961     0.006652
                             15.879656     0.044635
                              7.465803     0.122559
                              3.551993     0.311147
                              1.728185     0.288813
                              0.850498    -0.142246
                              0.417673    -0.613737
                              0.201523    -0.123916
                              0.100711    -0.020235
                              0.058959     0.733259
   12.1 Ag    1  3d2+        89.989649     0.000128
                             33.132961     0.006652
                             15.879656     0.044635
                              7.465803     0.122559
                              3.551993     0.311147
                              1.728185     0.288813
                              0.850498    -0.142246
                              0.417673    -0.613737
                              0.201523    -0.123916
                              0.100711    -0.020235
                              0.058959     0.733259
   13.1 Ag    1  3d0         89.989649     0.000000
                             33.132961     0.000000
                             15.879656     0.000000
                              7.465803     0.000000
                              3.551993     0.000000
                              1.728185     0.000000
                              0.850498     0.000000
                              0.417673     0.000000
                              0.201523     0.000000
                              0.100711     0.000000
                              0.058959     1.000000
   14.1 Ag    1  3d2+        89.989649     0.000000
                             33.132961     0.000000
                             15.879656     0.000000
                              7.465803     0.000000
                              3.551993     0.000000
                              1.728185     0.000000
                              0.850498     0.000000
                              0.417673     0.000000
                              0.201523     0.000000
                              0.100711     0.000000
                              0.058959     1.000000
   15.1 Ag    1  3d0          0.027000     1.000000
   16.1 Ag    1  3d2+         0.027000     1.000000
   17.1 Ag    1  5g0          0.616440     1.000000
   18.1 Ag    1  5g4+         0.616440     1.000000
   19.1 Ag    1  5g2+         0.616440     1.000000
   20.1 Ag    1  5g0          1.977796     1.000000
   21.1 Ag    1  5g4+         1.977796     1.000000
   22.1 Ag    1  5g2+         1.977796     1.000000
    1.2 B3u   1  2px         96.215967     0.000069    0.000040   -0.000053   -0.001262    0.000000
    2.2 B3u                  49.579340    -0.000672   -0.000133    0.000023    0.006419    0.000000
    3.2 B3u                  25.638009     0.008199   -0.000955    0.004629   -0.021229    0.000000
    4.2 B3u                  14.025942    -0.027108    0.003719   -0.007755    0.115777    0.000000
    5.2 B3u                   8.740334    -0.053021    0.018866   -0.104133   -0.420740    0.000000
                              4.634840     0.005002   -0.012074   -0.017762    0.197742    0.000000
                              2.553374     0.261986   -0.057107    0.728212    1.575600    0.000000
                              1.321166     0.433544   -0.146433    0.218826   -1.067913    0.000000
                              0.681285     0.324947   -0.067365   -0.493223   -1.310083    0.000000
                              0.349458     0.092342   -0.068254   -0.838192    1.191147    0.000000
                              0.172773     0.008964    0.403103    0.398401    0.550516    0.000000
                              0.063300     0.001185    0.502668    0.664589   -0.718788    0.000000
                              0.033969     0.000104    0.261291    0.033011   -0.157441    1.000000
    6.2 B3u   1  2px          0.016000     1.000000
    7.2 B3u   1  4f1+         0.131136     1.000000
    8.2 B3u   1  4f3+         0.131136     1.000000
    9.2 B3u   1  4f1+         0.552620     1.000000
   10.2 B3u   1  4f3+         0.552620     1.000000
   11.2 B3u   1  4f1+         2.328788     1.000000
   12.2 B3u   1  4f3+         2.328788     1.000000
    1.3 B2u   1  2py         96.215967     0.000069    0.000040   -0.000053   -0.001262    0.000000
    2.3 B2u                  49.579340    -0.000672   -0.000133    0.000023    0.006419    0.000000
    3.3 B2u                  25.638009     0.008199   -0.000955    0.004629   -0.021229    0.000000
    4.3 B2u                  14.025942    -0.027108    0.003719   -0.007755    0.115777    0.000000
    5.3 B2u                   8.740334    -0.053021    0.018866   -0.104133   -0.420740    0.000000
                              4.634840     0.005002   -0.012074   -0.017762    0.197742    0.000000
                              2.553374     0.261986   -0.057107    0.728212    1.575600    0.000000
                              1.321166     0.433544   -0.146433    0.218826   -1.067913    0.000000
                              0.681285     0.324947   -0.067365   -0.493223   -1.310083    0.000000
                              0.349458     0.092342   -0.068254   -0.838192    1.191147    0.000000
                              0.172773     0.008964    0.403103    0.398401    0.550516    0.000000
                              0.063300     0.001185    0.502668    0.664589   -0.718788    0.000000
                              0.033969     0.000104    0.261291    0.033011   -0.157441    1.000000
    6.3 B2u   1  2py          0.016000     1.000000
    7.3 B2u   1  4f1-         0.131136     1.000000
    8.3 B2u   1  4f3-         0.131136     1.000000
    9.3 B2u   1  4f1-         0.552620     1.000000
   10.3 B2u   1  4f3-         0.552620     1.000000
   11.3 B2u   1  4f1-         2.328788     1.000000
   12.3 B2u   1  4f3-         2.328788     1.000000
    1.4 B1g   1  3d2-        89.989649     0.000051   -0.000038    0.000128    0.000000
    2.4 B1g                  33.132961     0.004804   -0.004590    0.006652    0.000000
    3.4 B1g                  15.879656     0.029485   -0.027563    0.044635    0.000000
    4.4 B1g                   7.465803     0.086249   -0.082775    0.122559    0.000000
                              3.551993     0.179728   -0.173494    0.311147    0.000000
                              1.728185     0.261850   -0.236188    0.288813    0.000000
                              0.850498     0.291794   -0.149226   -0.142246    0.000000
                              0.417673     0.259356    0.044145   -0.613737    0.000000
                              0.201523     0.174944    0.390500   -0.123916    0.000000
                              0.100711     0.062278    0.203064   -0.020235    0.000000
                              0.058959     0.027653    0.398002    0.733259    1.000000
    5.4 B1g   1  3d2-         0.027000     1.000000
    6.4 B1g   1  5g2-         0.616440     1.000000
    7.4 B1g   1  5g4-         0.616440     1.000000
    8.4 B1g   1  5g2-         1.977796     1.000000
    9.4 B1g   1  5g4-         1.977796     1.000000
    1.5 B1u   1  2pz         96.215967     0.000069    0.000040   -0.000053   -0.001262    0.000000
    2.5 B1u                  49.579340    -0.000672   -0.000133    0.000023    0.006419    0.000000
    3.5 B1u                  25.638009     0.008199   -0.000955    0.004629   -0.021229    0.000000
    4.5 B1u                  14.025942    -0.027108    0.003719   -0.007755    0.115777    0.000000
    5.5 B1u                   8.740334    -0.053021    0.018866   -0.104133   -0.420740    0.000000
                              4.634840     0.005002   -0.012074   -0.017762    0.197742    0.000000
                              2.553374     0.261986   -0.057107    0.728212    1.575600    0.000000
                              1.321166     0.433544   -0.146433    0.218826   -1.067913    0.000000
                              0.681285     0.324947   -0.067365   -0.493223   -1.310083    0.000000
                              0.349458     0.092342   -0.068254   -0.838192    1.191147    0.000000
                              0.172773     0.008964    0.403103    0.398401    0.550516    0.000000
                              0.063300     0.001185    0.502668    0.664589   -0.718788    0.000000
                              0.033969     0.000104    0.261291    0.033011   -0.157441    1.000000
    6.5 B1u   1  2pz          0.016000     1.000000
    7.5 B1u   1  4f0          0.131136     1.000000
    8.5 B1u   1  4f2+         0.131136     1.000000
    9.5 B1u   1  4f0          0.552620     1.000000
   10.5 B1u   1  4f2+         0.552620     1.000000
   11.5 B1u   1  4f0          2.328788     1.000000
   12.5 B1u   1  4f2+         2.328788     1.000000
    1.6 B2g   1  3d1+        89.989649     0.000051   -0.000038    0.000128    0.000000
    2.6 B2g                  33.132961     0.004804   -0.004590    0.006652    0.000000
    3.6 B2g                  15.879656     0.029485   -0.027563    0.044635    0.000000
    4.6 B2g                   7.465803     0.086249   -0.082775    0.122559    0.000000
                              3.551993     0.179728   -0.173494    0.311147    0.000000
                              1.728185     0.261850   -0.236188    0.288813    0.000000
                              0.850498     0.291794   -0.149226   -0.142246    0.000000
                              0.417673     0.259356    0.044145   -0.613737    0.000000
                              0.201523     0.174944    0.390500   -0.123916    0.000000
                              0.100711     0.062278    0.203064   -0.020235    0.000000
                              0.058959     0.027653    0.398002    0.733259    1.000000
    5.6 B2g   1  3d1+         0.027000     1.000000
    6.6 B2g   1  5g1+         0.616440     1.000000
    7.6 B2g   1  5g3+         0.616440     1.000000
    8.6 B2g   1  5g1+         1.977796     1.000000
    9.6 B2g   1  5g3+         1.977796     1.000000
    1.7 B3g   1  3d1-        89.989649     0.000051   -0.000038    0.000128    0.000000
    2.7 B3g                  33.132961     0.004804   -0.004590    0.006652    0.000000
    3.7 B3g                  15.879656     0.029485   -0.027563    0.044635    0.000000
    4.7 B3g                   7.465803     0.086249   -0.082775    0.122559    0.000000
                              3.551993     0.179728   -0.173494    0.311147    0.000000
                              1.728185     0.261850   -0.236188    0.288813    0.000000
                              0.850498     0.291794   -0.149226   -0.142246    0.000000
                              0.417673     0.259356    0.044145   -0.613737    0.000000
                              0.201523     0.174944    0.390500   -0.123916    0.000000
                              0.100711     0.062278    0.203064   -0.020235    0.000000
                              0.058959     0.027653    0.398002    0.733259    1.000000
    5.7 B3g   1  3d1-         0.027000     1.000000
    6.7 B3g   1  5g1-         0.616440     1.000000
    7.7 B3g   1  5g3-         0.616440     1.000000
    8.7 B3g   1  5g1-         1.977796     1.000000
    9.7 B3g   1  5g3-         1.977796     1.000000
    1.8 Au    1  4f2-         0.131136     1.000000
    2.8 Au    1  4f2-         0.552620     1.000000
    3.8 Au    1  4f2-         2.328788     1.000000

 NUCLEAR CHARGE:                   13
 NUMBER OF PRIMITIVE AOS:         188
 NUMBER OF SYMMETRY AOS:          155
 NUMBER OF CONTRACTIONS:           88   (  22Ag  +  12B3u +  12B2u +   9B1g +  12B1u +   9B2g +   9B3g +   3Au  )
 NUMBER OF CORE ORBITALS:           4   (   1Ag  +   1B3u +   1B2u +   0B1g +   1B1u +   0B2g +   0B3g +   0Au  )
 NUMBER OF VALENCE ORBITALS:        6   (   3Ag  +   0B3u +   0B2u +   1B1g +   0B1u +   1B2g +   1B3g +   0Au  )


 NUCLEAR REPULSION ENERGY    0.00000000

 EXTRA SYMMETRY OF AOS IN SYMMETRY 1:   1 1 1 1 1 1 2 3 2 3   2 3 2 3 2 3 4 5 6 4   5 6
 EXTRA SYMMETRY OF AOS IN SYMMETRY 2:   1 1 1 1 1 1 2 3 2 3   2 3
 EXTRA SYMMETRY OF AOS IN SYMMETRY 3:   1 1 1 1 1 1 2 3 2 3   2 3
 EXTRA SYMMETRY OF AOS IN SYMMETRY 4:   1 1 1 1 1 2 3 2 3
 EXTRA SYMMETRY OF AOS IN SYMMETRY 5:   1 1 1 1 1 1 2 3 2 3   2 3
 EXTRA SYMMETRY OF AOS IN SYMMETRY 6:   1 1 1 1 1 2 3 2 3
 EXTRA SYMMETRY OF AOS IN SYMMETRY 7:   1 1 1 1 1 2 3 2 3

 Eigenvalues of metric

         1 0.577E-02 0.208E-01 0.208E-01 0.133E+00 0.333E+00 0.333E+00 0.588E+00 0.588E+00
         2 0.262E-01 0.382E+00 0.516E+00 0.531E+00 0.531E+00 0.973E+00 0.973E+00 0.100E+01
         3 0.262E-01 0.382E+00 0.516E+00 0.531E+00 0.531E+00 0.973E+00 0.973E+00 0.100E+01
         4 0.208E-01 0.333E+00 0.588E+00 0.588E+00 0.100E+01 0.102E+01 0.141E+01 0.141E+01
         5 0.262E-01 0.382E+00 0.516E+00 0.531E+00 0.531E+00 0.973E+00 0.973E+00 0.100E+01
         6 0.208E-01 0.333E+00 0.588E+00 0.588E+00 0.100E+01 0.102E+01 0.141E+01 0.141E+01
         7 0.208E-01 0.333E+00 0.588E+00 0.588E+00 0.100E+01 0.102E+01 0.141E+01 0.141E+01
         8 0.531E+00 0.973E+00 0.150E+01


 Contracted 2-electron integrals neglected if value below      1.0D-12
 AO integral compression algorithm  1   Integral accuracy      1.0D-12

     8.126 MB (compressed) written to integral file ( 53.1%)


 NUMBER OF SORTED TWO-ELECTRON INTEGRALS:    1019164.     BUFFER LENGTH:  32768
 NUMBER OF SEGMENTS:   1  SEGMENT LENGTH:    1019164      RECORD LENGTH: 524288

 Memory used in sort:       1.58 MW

 SORT1 READ     1855900. AND WROTE      770922. INTEGRALS IN      3 RECORDS. CPU TIME:     0.04 SEC, REAL TIME:     0.06 SEC
 SORT2 READ      770922. AND WROTE     1019164. INTEGRALS IN     31 RECORDS. CPU TIME:     0.05 SEC, REAL TIME:     0.11 SEC

 FILE SIZES:   FILE 1:    27.4 MBYTE,  FILE 4:    12.6 MBYTE,   TOTAL:     40.0 MBYTE

 OPERATOR DM      FOR CENTER  0  COORDINATES:    0.000000    0.000000    0.000000
 OPERATOR EKIN    FOR CENTER  0  COORDINATES:    0.000000    0.000000    0.000000
 OPERATOR POT     FOR CENTER  0  COORDINATES:    0.000000    0.000000    0.000000


 **********************************************************************************************************************************
 DATASETS  * FILE   NREC   LENGTH (MB)   RECORD NAMES
              1      20       23.62       500      610      700      900      950      970     1000      129      960     1100   
                                          VAR    BASINP    GEOM    SYMINP    ZMAT    AOBASIS   BASIS     P2S    ABASIS      S 
                                         1400     1410     1420     1200     1210     1080     1600     1650     1300     1700   
                                         EKIN       V       ECP      H0       H01     AOSYM     SMH    MOLCAS    ERIS     OPER   

 PROGRAMS   *        TOTAL       INT
 CPU TIMES  *         2.69      2.59
 REAL TIME  *        12.33 SEC
 DISK USED  *        40.32 MB      
 **********************************************************************************************************************************


 PROGRAM * RHF-SCF (OPEN SHELL)       Authors: W. Meyer, H.-J. Werner


 NUMBER OF ELECTRONS:       8+    5-    SPACE SYMMETRY=6    SPIN SYMMETRY: Quartet 
 CONVERGENCE THRESHOLDS:    1.00E-05 (Density)    1.00E-07 (Energy)
 MAX. NUMBER OF ITERATIONS:       60
 INTERPOLATION TYPE:            DIIS
 INTERPOLATION STEPS:              2 (START)      1 (STEP)
 LEVEL SHIFTS:                 -0.60 (CLOSED) -0.30 (OPEN) 


 Singly occupied orbitals:      3.1       4.1       1.6
 
 Extra symmetries of mos in symmetry 1:   1   1

   Atom=V  basis=ECP10MDF_GUESS    lmin=0  lmax=2

 Orbital guess generated from atomic densities. Full valence occupancy:    4   1   1   1   1   1   1   0


 Molecular orbital dump at record        2100.2

 ITERATION    DDIFF          GRAD             ENERGY        2-EL.EN.            DIPOLE MOMENTS         DIIS   ORB.
    1      0.000D+00      0.000D+00       -70.68941177     93.811838    0.00000    0.00000    0.00000    0    start
    2      0.000D+00      0.295D-01       -70.85786378    100.792752    0.00000    0.00000    0.00000    1    diag,B
    3      0.158D-01      0.166D-01       -70.87569713    100.390882    0.00000    0.00000    0.00000    2    diag,B
    4      0.420D-02      0.657D-02       -70.88576528    100.573922    0.00000    0.00000    0.00000    3    diag,B
    5      0.556D-02      0.130D-02       -70.88676823    100.633072    0.00000    0.00000    0.00000    4    diag,B
    6      0.164D-02      0.462D-03       -70.88690630    100.562198    0.00000    0.00000    0.00000    5    diag,B
    7      0.204D-02      0.157D-03       -70.88692399    100.533047    0.00000    0.00000    0.00000    6    fixocc
    8      0.104D-02      0.563D-04       -70.88692649    100.528049    0.00000    0.00000    0.00000    7    diag,B
    9      0.242D-03      0.351D-04       -70.88692810    100.522834    0.00000    0.00000    0.00000    8    diag,B
   10      0.403D-03      0.791D-05       -70.88692816    100.522567    0.00000    0.00000    0.00000    9    orth
   11      0.840D-04      0.152D-05       -70.88692816    100.522519    0.00000    0.00000    0.00000    9    diag,B
   12      0.649D-05      0.284D-06       -70.88692814    100.522449    0.00000    0.00000    0.00000    0    orth

 Final alpha occupancy:   4   1   1   0   1   1   0   0
 Final beta  occupancy:   2   1   1   0   1   0   0   0

 !RHF STATE 1.6 Energy                -70.886928144290
 Nuclear energy                         0.00000000
 One-electron energy                 -121.14815269
 Two-electron energy                   50.26122455
 Virial quotient                       -2.05235713
 !RHF STATE 1.6 Dipole moment           0.00000000     0.00000000     0.00000000
 Dipole moment /Debye                   0.00000000     0.00000000     0.00000000
 

 !RHF expec          <1.6|EKIN|1.6>    34.539275397889
 
 !RHF expec           <1.6|POT|1.6>   -12.768639161518

 ELECTRON ORBITALS
 =================


   Orb  Occ    Energy  Couls-En    Coefficients

                                   1 1s      1 1s      1 1s      1 1s      1 1s      1 1s      1 3d0     1 3d2+    1 3d0     1 3d2+ 
                                   1 3d0     1 3d2+    1 3d0     1 3d2+    1 3d0     1 3d2+    1 5g0     1 5g4+    1 5g2+    1 5g0  
                                   1 5g4+    1 5g2+ 

   1.1   2    -3.2344  -15.1577  0.999842 -0.000242  0.000121  0.000034  0.000270 -0.000121 -0.007030 -0.012175  0.002566  0.004444
                                -0.000359 -0.000622 -0.000987 -0.001710  0.000159  0.000276  0.000430  0.000848  0.000641  0.000316
                                 0.000623  0.000471

   2.1   2    -0.2326   -4.2554 -0.000128  0.999778 -0.000372  0.000068 -0.000479  0.000406 -0.012000 -0.020785 -0.009891 -0.017132
                                -0.001286 -0.002227  0.003187  0.005520 -0.000497 -0.000862 -0.000055 -0.000109 -0.000082  0.000115
                                 0.000226  0.000171

   3.1   +    -0.5360   -8.9527  0.014750  0.020066  0.003591 -0.000841  0.000515  0.000287  0.493371  0.854543 -0.053985 -0.093504
                                -0.007799 -0.013509  0.014129  0.024472  0.000636  0.001101 -0.001620 -0.003195 -0.002415 -0.001240
                                -0.002446 -0.001849

   4.1   +    -0.4804   -8.8119 -0.000000 -0.000000  0.000000 -0.000000  0.000000 -0.000000  0.860655 -0.496899 -0.061735  0.035643
                                -0.008860  0.005115  0.009998 -0.005772  0.001624 -0.000937  0.001374 -0.001626  0.001229  0.000961
                                -0.001138  0.000860

                                   1 2px     1 2px     1 2px     1 2px     1 2px     1 2px     1 4f1+    1 4f3+    1 4f1+    1 4f3+ 
                                   1 4f1+    1 4f3+ 

   1.2   2    -2.0297  -12.7235  1.000388  0.031004 -0.022381  0.004659 -0.004382 -0.000806  0.000140  0.000543  0.000784  0.003035
                                 0.000320  0.001239

                                   1 2py     1 2py     1 2py     1 2py     1 2py     1 2py     1 4f1-    1 4f3-    1 4f1-    1 4f3- 
                                   1 4f1-    1 4f3- 

   1.3   2    -2.0381  -12.7387  1.000318  0.027067 -0.020073  0.003297 -0.004205 -0.000602 -0.000090 -0.000116 -0.005494 -0.007093
                                -0.005054 -0.006525

                                   1 2pz     1 2pz     1 2pz     1 2pz     1 2pz     1 2pz     1 4f0     1 4f2+    1 4f0     1 4f2+ 
                                   1 4f0     1 4f2+ 

   1.5   2    -2.0297  -12.7235  1.000388  0.031004 -0.022381  0.004659 -0.004382 -0.000806  0.000343  0.000443  0.001919  0.002478
                                 0.000784  0.001012

                                   1 3d1+    1 3d1+    1 3d1+    1 3d1+    1 3d1+    1 5g1+    1 5g3+    1 5g1+    1 5g3+ 

   1.6   +    -0.4804   -8.8119  0.993799 -0.071285 -0.010230  0.011544  0.001875  0.000869  0.002300  0.000608  0.001609

 HOMO      4.1    -0.480396 =     -13.0722eV
 LUMO      2.3     0.017129 =       0.4661eV
 LUMO-HOMO         0.497526 =      13.5384eV


 **********************************************************************************************************************************
 DATASETS  * FILE   NREC   LENGTH (MB)   RECORD NAMES
              1      20       23.62       500      610      700      900      950      970     1000      129      960     1100   
                                          VAR    BASINP    GEOM    SYMINP    ZMAT    AOBASIS   BASIS     P2S    ABASIS      S 
                                         1400     1410     1420     1200     1210     1080     1600     1650     1300     1700   
                                         EKIN       V       ECP      H0       H01     AOSYM     SMH    MOLCAS    ERIS     OPER   

              2       4        2.79       700     1000      520     2100   
                                         GEOM     BASIS   MCVARS     RHF  

 PROGRAMS   *        TOTAL        HF       INT
 CPU TIMES  *         2.77      0.08      2.59
 REAL TIME  *        12.55 SEC
 DISK USED  *        40.32 MB      
 **********************************************************************************************************************************
 SETTING SCF(I)         =       -70.88692814  AU                              
 SETTING _CC_NORM_MAX   =         2.00000000                                  


 PROGRAM * UHF-SCF       Authors: W. Meyer, H.-J. Werner


 NUMBER OF ELECTRONS:       8+    5-    SPACE SYMMETRY=6    SPIN SYMMETRY: Quartet 
 CONVERGENCE THRESHOLDS:    1.00E-05 (Density)    1.00E-07 (Energy)
 MAX. NUMBER OF ITERATIONS:        0
 INTERPOLATION TYPE:            DIIS
 INTERPOLATION STEPS:              2 (START)      1 (STEP)
 LEVEL SHIFTS:                  0.20 (ALPHA)   0.20 (BETA) 


 Singly occupied orbitals:      3.1       4.1       1.6
 
 Extra symmetries of mos in symmetry 1:   1   1
 Molecular orbitals read from record     2100.2  Type=RHF/CANONICAL (state 1.6)

 Molecular orbital dump at record        2200.2

 Initial alpha occupation   4   1   1   0   1   1   0   0
 Initial beta  occupation   2   1   1   0   1   0   0   0

 ITERATION    DDIFF          GRAD             ENERGY        2-EL.EN.            DIPOLE MOMENTS         DIIS
    1      0.000D+00      0.000D+00       -70.88692814    100.522449    0.00000    0.00000    0.00000    0
 
 Final alpha occupancy:   4   1   1   0   1   1   0   0
 Final beta  occupancy:   2   1   1   0   1   0   0   0

 !UHF STATE 1.6 Energy                -70.886928144290
 Nuclear energy                         0.00000000
 One-electron energy                 -121.14815269
 Two-electron energy                   50.26122455
 Virial quotient                       -2.05235713
 !UHF STATE 1.6 Dipole moment           0.00000000     0.00000000     0.00000000
 Dipole moment /Debye                   0.00000000     0.00000000     0.00000000
 

 !UHF expec          <1.6|EKIN|1.6>    34.539275397889
 
 !UHF expec           <1.6|POT|1.6>   -12.768639161518

 ELECTRON ORBITALS FOR POSITIVE SPIN
 ===================================


   Orb  Occ    Energy  Couls-En    Coefficients

                                   1 1s      1 1s      1 1s      1 1s      1 1s      1 1s      1 3d0     1 3d2+    1 3d0     1 3d2+ 
                                   1 3d0     1 3d2+    1 3d0     1 3d2+    1 3d0     1 3d2+    1 5g0     1 5g4+    1 5g2+    1 5g0  
                                   1 5g4+    1 5g2+ 

   1.1   +    -3.2344  -15.1577  0.999842 -0.000242  0.000121  0.000034  0.000270 -0.000121 -0.007030 -0.012175  0.002566  0.004444
                                -0.000359 -0.000622 -0.000987 -0.001710  0.000159  0.000276  0.000430  0.000848  0.000641  0.000316
                                 0.000623  0.000471

   2.1   +    -0.2326   -4.2554 -0.000128  0.999778 -0.000372  0.000068 -0.000479  0.000406 -0.012000 -0.020785 -0.009891 -0.017132
                                -0.001286 -0.002227  0.003187  0.005520 -0.000497 -0.000862 -0.000055 -0.000109 -0.000082  0.000115
                                 0.000226  0.000171

   3.1   +    -0.5360   -8.9527  0.014750  0.020066  0.003591 -0.000841  0.000515  0.000287  0.493371  0.854543 -0.053985 -0.093504
                                -0.007799 -0.013509  0.014129  0.024472  0.000636  0.001101 -0.001620 -0.003195 -0.002415 -0.001240
                                -0.002446 -0.001849

   4.1   +    -0.4804   -8.8119 -0.000000 -0.000000  0.000000 -0.000000  0.000000 -0.000000  0.860655 -0.496899 -0.061735  0.035643
                                -0.008860  0.005115  0.009998 -0.005772  0.001624 -0.000937  0.001374 -0.001626  0.001229  0.000961
                                -0.001138  0.000860

                                   1 2px     1 2px     1 2px     1 2px     1 2px     1 2px     1 4f1+    1 4f3+    1 4f1+    1 4f3+ 
                                   1 4f1+    1 4f3+ 

   1.2   +    -2.0297  -12.7235  1.000388  0.031004 -0.022381  0.004659 -0.004382 -0.000806  0.000140  0.000543  0.000784  0.003035
                                 0.000320  0.001239

                                   1 2py     1 2py     1 2py     1 2py     1 2py     1 2py     1 4f1-    1 4f3-    1 4f1-    1 4f3- 
                                   1 4f1-    1 4f3- 

   1.3   +    -2.0381  -12.7387  1.000318  0.027067 -0.020073  0.003297 -0.004205 -0.000602 -0.000090 -0.000116 -0.005494 -0.007093
                                -0.005054 -0.006525

                                   1 2pz     1 2pz     1 2pz     1 2pz     1 2pz     1 2pz     1 4f0     1 4f2+    1 4f0     1 4f2+ 
                                   1 4f0     1 4f2+ 

   1.5   +    -2.0297  -12.7235  1.000388  0.031004 -0.022381  0.004659 -0.004382 -0.000806  0.000343  0.000443  0.001919  0.002478
                                 0.000784  0.001012

                                   1 3d1+    1 3d1+    1 3d1+    1 3d1+    1 3d1+    1 5g1+    1 5g3+    1 5g1+    1 5g3+ 

   1.6   +    -0.4804   -8.8119  0.993799 -0.071285 -0.010230  0.011544  0.001875  0.000869  0.002300  0.000608  0.001609

 ELECTRON ORBITALS FOR NEGATIVE SPIN
 ===================================


   Orb  Occ    Energy  Couls-En    Coefficients

                                   1 1s      1 1s      1 1s      1 1s      1 1s      1 1s      1 3d0     1 3d2+    1 3d0     1 3d2+ 
                                   1 3d0     1 3d2+    1 3d0     1 3d2+    1 3d0     1 3d2+    1 5g0     1 5g4+    1 5g2+    1 5g0  
                                   1 5g4+    1 5g2+ 

   1.1   -    -3.2344  -15.1577  0.999842 -0.000242  0.000121  0.000034  0.000270 -0.000121 -0.007030 -0.012175  0.002566  0.004444
                                -0.000359 -0.000622 -0.000987 -0.001710  0.000159  0.000276  0.000430  0.000848  0.000641  0.000316
                                 0.000623  0.000471

   2.1   -    -0.2326   -4.2554 -0.000128  0.999778 -0.000372  0.000068 -0.000479  0.000406 -0.012000 -0.020785 -0.009891 -0.017132
                                -0.001286 -0.002227  0.003187  0.005520 -0.000497 -0.000862 -0.000055 -0.000109 -0.000082  0.000115
                                 0.000226  0.000171

                                   1 2px     1 2px     1 2px     1 2px     1 2px     1 2px     1 4f1+    1 4f3+    1 4f1+    1 4f3+ 
                                   1 4f1+    1 4f3+ 

   1.2   -    -2.0297  -12.7235  1.000388  0.031004 -0.022381  0.004659 -0.004382 -0.000806  0.000140  0.000543  0.000784  0.003035
                                 0.000320  0.001239

                                   1 2py     1 2py     1 2py     1 2py     1 2py     1 2py     1 4f1-    1 4f3-    1 4f1-    1 4f3- 
                                   1 4f1-    1 4f3- 

   1.3   -    -2.0381  -12.7387  1.000318  0.027067 -0.020073  0.003297 -0.004205 -0.000602 -0.000090 -0.000116 -0.005494 -0.007093
                                -0.005054 -0.006525

                                   1 2pz     1 2pz     1 2pz     1 2pz     1 2pz     1 2pz     1 4f0     1 4f2+    1 4f0     1 4f2+ 
                                   1 4f0     1 4f2+ 

   1.5   -    -2.0297  -12.7235  1.000388  0.031004 -0.022381  0.004659 -0.004382 -0.000806  0.000343  0.000443  0.001919  0.002478
                                 0.000784  0.001012

 HOMO     -2.1    -0.232566 =      -6.3284eV
 LUMO     -3.1    -0.535950 =     -14.5839eV
 LUMO-HOMO        -0.303384 =      -8.2555eV

 EXPECTATION VALUE OF S**2:             3.75000000

 Occupation number threshold for canonical orbitals:  1.999000 (occupied),  0.001000 (virtual)

 Number of pseudo-canonical orbitals per symmetry:    2   1   1   0   1   0   0   0
 Number of active natural orbitals per symmetry:      2   0   0   0   0   1   0   0

 NATURAL CHARGE ORBITALS
 =======================


   Orb     Occ        Energy       Coefficients

                                   1 1s      1 1s      1 1s      1 1s      1 1s      1 1s      1 3d0     1 3d2+    1 3d0     1 3d2+ 
                                   1 3d0     1 3d2+    1 3d0     1 3d2+    1 3d0     1 3d2+    1 5g0     1 5g4+    1 5g2+    1 5g0  
                                   1 5g4+    1 5g2+ 

   1.1  2.00000    -3.234356     0.999842 -0.000240  0.000121  0.000034  0.000270 -0.000121 -0.007030 -0.012176  0.002566  0.004444
                                -0.000359 -0.000622 -0.000987 -0.001710  0.000159  0.000276  0.000430  0.000848  0.000641  0.000316
                                 0.000623  0.000471

   2.1  2.00000    -0.232565    -0.000130  0.999778 -0.000372  0.000068 -0.000479  0.000406 -0.012000 -0.020785 -0.009891 -0.017132
                                -0.001286 -0.002227  0.003187  0.005520 -0.000497 -0.000862 -0.000055 -0.000109 -0.000082  0.000115
                                 0.000226  0.000171

   3.1  1.00000    -0.105103     0.009827  0.013369  0.002392 -0.000560  0.000343  0.000191 -0.313139  0.939881  0.010073 -0.088875
                                 0.001411 -0.012814  0.001957  0.020609 -0.000787  0.001433 -0.002104 -0.000916 -0.002526 -0.001543
                                -0.000781 -0.001873

   4.1  1.00000    -0.109491     0.011000  0.014964  0.002678 -0.000627  0.000384  0.000214  0.941321  0.306231 -0.081389 -0.045985
                                -0.011719 -0.006666  0.017198  0.014405  0.001556  0.000197 -0.000292 -0.003466 -0.000982 -0.000284
                                -0.002582 -0.000806

                                   1 2px     1 2px     1 2px     1 2px     1 2px     1 2px     1 4f1+    1 4f3+    1 4f1+    1 4f3+ 
                                   1 4f1+    1 4f3+ 

   1.2  2.00000    -2.029712     1.000388  0.031004 -0.022381  0.004659 -0.004382 -0.000806  0.000140  0.000543  0.000784  0.003035
                                 0.000320  0.001239

                                   1 2py     1 2py     1 2py     1 2py     1 2py     1 2py     1 4f1-    1 4f3-    1 4f1-    1 4f3- 
                                   1 4f1-    1 4f3- 

   1.3  2.00000    -2.038122     1.000318  0.027067 -0.020073  0.003297 -0.004205 -0.000602 -0.000090 -0.000116 -0.005494 -0.007093
                                -0.005054 -0.006525

                                   1 2pz     1 2pz     1 2pz     1 2pz     1 2pz     1 2pz     1 4f0     1 4f2+    1 4f0     1 4f2+ 
                                   1 4f0     1 4f2+ 

   1.5  2.00000    -2.029712     1.000388  0.031004 -0.022381  0.004659 -0.004382 -0.000806  0.000343  0.000443  0.001919  0.002478
                                 0.000784  0.001012

                                   1 3d1+    1 3d1+    1 3d1+    1 3d1+    1 3d1+    1 5g1+    1 5g3+    1 5g1+    1 5g3+ 

   1.6  1.00000    -0.087756     0.993799 -0.071285 -0.010230  0.011544  0.001875  0.000869  0.002300  0.000608  0.001609

 Natural orbitals saved to record    2200.2 (Orbital set 3)

 Orbital spaces for UNO-CAS (Min. occupation: 0.020  Max. occupation: 1.980):

 Closed:        2   1   1   0   1   0   0   0
 Active:        2   0   0   0   0   1   0   0

 No convergence



 **********************************************************************************************************************************
 DATASETS  * FILE   NREC   LENGTH (MB)   RECORD NAMES
              1      20       23.62       500      610      700      900      950      970     1000      129      960     1100   
                                          VAR    BASINP    GEOM    SYMINP    ZMAT    AOBASIS   BASIS     P2S    ABASIS      S 
                                         1400     1410     1420     1200     1210     1080     1600     1650     1300     1700   
                                         EKIN       V       ECP      H0       H01     AOSYM     SMH    MOLCAS    ERIS     OPER   

              2       5        5.35       700     1000      520     2100     2200   
                                         GEOM     BASIS   MCVARS     RHF      UHF  

 PROGRAMS   *        TOTAL       UHF        HF       INT
 CPU TIMES  *         2.80      0.03      0.08      2.59
 REAL TIME  *        12.68 SEC
 DISK USED  *        40.32 MB      
 **********************************************************************************************************************************
 SETTING SCF(I)         =       -70.88692814  AU                              


 PROGRAM * MRCC (General Multireference Coupled Cluster)    Author: M. Kallay, 2000-2005

 ***  Initialisation ***

   0 Spin projections
 
 Molecular orbitals read from record     2200.2  Type=UHF/ALPHA (state 1.6)

 ?Warning: UHF not converged
 Molecular orbitals read from record     2200.2  Type=UHF/BETA (state 1.6)

 ?Warning: UHF not converged
 
 Frozen orbitals:              0 (  0  0  0  0  0  0  0  0)
 Active orbitals:             88 ( 22 12 12  9 12  9  9  3)
 Active electrons:            13
 Spin quantum number:          1.5

 Transformed integrals will be written to file mrcc_34421/fort.55

 Load integrals                2.8 sec
 Transform integrals           3.3 sec
 Storage for integrals:        5889086
 Remaining memory:           *********

 Core energy:               0.00000000
 
 MRCC Input:
     4     0     0     0     3     0     0     6     0     0     0     1     1     0     0     7     0     0   0.000     0   64000
  ex.lev,nsing,ntrip, rest,method,dens,conver,symm, diag, CS ,spatial, HF, ndoub,nacto,nactv, tol, maxex, sacc, freq,  dboc,   mem
  2  2  1  1  0  0  0  0  0  0  0  0  0  0  0  0  0  0  0  0  0  0  2  0  0  0  0  0  0  0  0  0  0  0  2  0  0  0  0  0  0  0  0  0  0  0  0  0  0  0  0  0  0  0  0  2  0  0  0  0  0  0  0  0  0  0  0  1  0  0  0  0  0  0  0  0  0  0  0  0  0  0  0  0  0  0  0  0
 MRCC Input end
 Variable memory released
 MRCC now being run, temporary output in /global/cscratch1/sd/aannabe/mrcc_34421/mrcc.out
 **********************************************************************
                          MRCC program system
 **********************************************************************

                              Written by
  Mihaly Kallay, Zoltan Rolik, Jozsef Csontos, Peter Nagy, Gyula Samu,
      David Mester, Jozsef Csoka, Bernat Szabo, Istvan Ladjanszki,
       Lorant Szegedy, Bence Ladoczki, Klara Petrov, Mate Farkas,
                    Pal D. Mezei, and Bence Hegely

        Department of Physical Chemistry and Materials Science
            Budapest University of Technology and Economics
                  Budapest P.O.Box 91, H-1521 Hungary

                              www.mrcc.hu

                       Release date: May 23, 2018

 ************************ 2018-06-15 14:57:51 *************************
 Executing goldstone...

 Generation of CC equations in terms of H and T...
 Generation of antisymmetrized Goldstone diagrams...
 Number of diagrams in T^1 equations:    15
 Number of diagrams in T^2 equations:    38
 Number of diagrams in T^3 equations:    49
 Number of diagrams in T^4 equations:     5
 Translation of diagrams to factorized equations...
 Optimizing intermediate calculation...
 Number of floating-point operations per iteration step:   2.3739E+12
 Probable CPU time per iteration step (hours):     23.74
 Required memory (Mbytes):   19326.1
 Number of intermediates:                                  80
 Number of intermediates to be stored:                     31
 Length of intermediate file (Mbytes):     179.3

 ************************ 2018-06-15 14:57:51 *************************
 Executing xmrcc...

 **********************************************************************
 CC(3)(4) calculation


 Allocation of****** Mbytes of memory...
 Number of spinorbitals:                   176
 Number of alpha electrons:                        8
 Number of beta electrons:                         5
 Spin multiplicity:                     2
 z-component of spin:  1.5
 Spatial symmetry:                      6
 Convergence criterion:  1.0E-07
 Construction of occupation graphs...
 Number of                     0 -fold excitations:                      1
 Number of                     1 -fold excitations:                    186
 Number of                     2 -fold excitations:                  50609
 Number of                     3 -fold excitations:                8026194
 Total number of configurations:                8076990
 Calculation of coupling coefficients...
 Length of intermediate file (Mbytes):     132.2

 ======================================================================

 Spin case  1   Alpha:  0   Beta:  4
 Number of excitations:                1149870
 Spin case  2   Alpha:  1   Beta:  3
 Number of excitations:               73482454
 Spin case  3   Alpha:  2   Beta:  2
 Number of excitations:              376448378
 Spin case  4   Alpha:  3   Beta:  1
 Number of excitations:              238663319
 Spin case  5   Alpha:  4   Beta:  0
 Number of excitations:               13840895
 Number of                     4 -fold excitations:              703584916

 Memory requirements /Mbyte/:
               Minimal        Optimal
 Real*8:        227.1075       457.6533
 Integer:        48.1927
 Total:         275.3002       505.8460


 ************************ 2018-06-15 14:57:56 *************************
 Executing mrcc...

 **********************************************************************
 CCSDT(Q) calculation


 OpenMP parallel version is running.
 Number of CPUs:   1
 Allocation of  457.7 Mbytes of memory...
 Number of spinorbitals: 176
 Number of alpha electrons:  8
 Number of beta  electrons:  5
 Spin multiplicity: 2
 z-component of spin:  1.5
 Spatial symmetry: 6
 Convergence criterion:  1.0E-07
 Construction of occupation graphs...
 Number of 0-fold excitations: 1
 Number of 1-fold excitations: 186
 Number of 2-fold excitations: 50609
 Number of 3-fold excitations: 8026194
 Total number of determinants: 8076990
 Calculation of coupling coefficients...
 Initial cluster amplitudes are generated.
 Length of intermediate file (Mbytes):     132.2
 Reading integral list from unit 55...
 Sorting integrals...
 Sorting integrals...
 Sorting integrals...
 Sorting integrals...
 Energy of reference determinant [au]:     -70.886928144290
 Calculation of MP denominators...

 Starting CC iteration...
 ======================================================================
 Norm of residual vector:     1.81227718
 CPU time [min]:     1.445                   Wall time [min]:     1.458

 Iteration  1  CC energy:   -71.32053699  Energy decrease:   0.43360885
 ======================================================================
 Norm of residual vector:     0.40049621
 CPU time [min]:     2.937                   Wall time [min]:     2.966

 Iteration  2  CC energy:   -71.32715831  Energy decrease:   0.00662131
 ======================================================================
 Norm of residual vector:     0.10129030
 CPU time [min]:     4.454                   Wall time [min]:     4.502

 Iteration  3  CC energy:   -71.35299240  Energy decrease:   0.02583410
 ======================================================================
 Norm of residual vector:     0.04082868
 CPU time [min]:     6.089                   Wall time [min]:     6.154

 Iteration  4  CC energy:   -71.35558492  Energy decrease:   0.00259251
 ======================================================================
 Norm of residual vector:     0.02671277
 CPU time [min]:     7.928                   Wall time [min]:     8.014

 Iteration  5  CC energy:   -71.35407880  Energy decrease:   0.00150612
 ======================================================================
 Norm of residual vector:     0.02112091
 CPU time [min]:     9.643                   Wall time [min]:     9.747

 Iteration  6  CC energy:   -71.35422076  Energy decrease:   0.00014196
 ======================================================================
 Norm of residual vector:     0.01910395
 CPU time [min]:    11.302                   Wall time [min]:    11.422

 Iteration  7  CC energy:   -71.35561543  Energy decrease:   0.00139467
 ======================================================================
 Norm of residual vector:     0.01699259
 CPU time [min]:    12.910                   Wall time [min]:    13.046

 Iteration  8  CC energy:   -71.35658623  Energy decrease:   0.00097080
 ======================================================================
 Norm of residual vector:     0.01418245
 CPU time [min]:    14.338                   Wall time [min]:    14.486

 Iteration  9  CC energy:   -71.35750872  Energy decrease:   0.00092249
 ======================================================================
 Norm of residual vector:     0.01076404
 CPU time [min]:    15.770                   Wall time [min]:    15.931

 Iteration 10  CC energy:   -71.35853680  Energy decrease:   0.00102808
 ======================================================================
 Norm of residual vector:     0.00764326
 CPU time [min]:    17.209                   Wall time [min]:    17.394

 Iteration 11  CC energy:   -71.35908073  Energy decrease:   0.00054392
 ======================================================================
 Norm of residual vector:     0.00538959
 CPU time [min]:    18.685                   Wall time [min]:    18.895

 Iteration 12  CC energy:   -71.35938222  Energy decrease:   0.00030149
 ======================================================================
 Norm of residual vector:     0.00399980
 CPU time [min]:    20.176                   Wall time [min]:    20.393

 Iteration 13  CC energy:   -71.35972992  Energy decrease:   0.00034770
 ======================================================================
 Norm of residual vector:     0.00286819
 CPU time [min]:    21.717                   Wall time [min]:    22.048

 Iteration 14  CC energy:   -71.35986298  Energy decrease:   0.00013306
 ======================================================================
 Norm of residual vector:     0.00206100
 CPU time [min]:    23.654                   Wall time [min]:    24.014

 Iteration 15  CC energy:   -71.35986970  Energy decrease:   0.00000672
 ======================================================================
 Norm of residual vector:     0.00154786
 CPU time [min]:    25.662                   Wall time [min]:    26.027

 Iteration 16  CC energy:   -71.35996435  Energy decrease:   0.00009465
 ======================================================================
 Norm of residual vector:     0.00105900
 CPU time [min]:    27.685                   Wall time [min]:    28.068

 Iteration 17  CC energy:   -71.36001798  Energy decrease:   0.00005362
 ======================================================================
 Norm of residual vector:     0.00068881
 CPU time [min]:    29.598                   Wall time [min]:    29.988

 Iteration 18  CC energy:   -71.35999704  Energy decrease:   0.00002093
 ======================================================================
 Norm of residual vector:     0.00046625
 CPU time [min]:    31.475                   Wall time [min]:    31.993

 Iteration 19  CC energy:   -71.36000925  Energy decrease:   0.00001221
 ======================================================================
 Norm of residual vector:     0.00033629
 CPU time [min]:    33.343                   Wall time [min]:    33.878

 Iteration 20  CC energy:   -71.36001543  Energy decrease:   0.00000618
 ======================================================================
 Norm of residual vector:     0.00024066
 CPU time [min]:    35.557                   Wall time [min]:    36.218

 Iteration 21  CC energy:   -71.36001541  Energy decrease:   0.00000002
 ======================================================================
 Norm of residual vector:     0.00016638
 CPU time [min]:    37.641                   Wall time [min]:    38.313

 Iteration 22  CC energy:   -71.36001668  Energy decrease:   0.00000127
 ======================================================================
 Norm of residual vector:     0.00011517
 CPU time [min]:    39.534                   Wall time [min]:    40.225

 Iteration 23  CC energy:   -71.36001598  Energy decrease:   0.00000070
 ======================================================================
 Norm of residual vector:     0.00007385
 CPU time [min]:    41.701                   Wall time [min]:    42.405

 Iteration 24  CC energy:   -71.36001601  Energy decrease:   0.00000003
 ======================================================================
 Norm of residual vector:     0.00004971
 CPU time [min]:    43.821                   Wall time [min]:    44.538

 Iteration 25  CC energy:   -71.36001666  Energy decrease:   0.00000065
 ======================================================================
 Norm of residual vector:     0.00003390
 CPU time [min]:    45.938                   Wall time [min]:    46.674

 Iteration 26  CC energy:   -71.36001634  Energy decrease:   0.00000032
 ======================================================================
 Norm of residual vector:     0.00002048
 CPU time [min]:    48.077                   Wall time [min]:    48.971

 Iteration 27  CC energy:   -71.36001625  Energy decrease:   0.00000009
 ======================================================================
 Norm of residual vector:     0.00001334
 CPU time [min]:    49.941                   Wall time [min]:    50.854

 Iteration 28  CC energy:   -71.36001637  Energy decrease:   0.00000012
 ======================================================================
 Norm of residual vector:     0.00000846
 CPU time [min]:    51.744                   Wall time [min]:    52.668

 Iteration 29  CC energy:   -71.36001631  Energy decrease:   0.00000007
 ======================================================================
 Norm of residual vector:     0.00000507
 CPU time [min]:    53.547                   Wall time [min]:    54.482

 Iteration 30  CC energy:   -71.36001625  Energy decrease:   0.00000006
 ======================================================================
 Norm of residual vector:     0.00000316
 CPU time [min]:    55.531                   Wall time [min]:    56.489

 Iteration 31  CC energy:   -71.36001626  Energy decrease:   0.00000001
 ======================================================================
 Norm of residual vector:     0.00000189
 CPU time [min]:    57.590                   Wall time [min]:    58.559

 Iteration 32  CC energy:   -71.36001626  Energy decrease:   2.1314E-09
 ======================================================================
 Norm of residual vector:     0.00000113
 CPU time [min]:    59.472                   Wall time [min]:    60.452

 Iteration 33  CC energy:   -71.36001624  Energy decrease:   0.00000002
 ======================================================================
 Norm of residual vector:     0.00000072
 CPU time [min]:    61.456                   Wall time [min]:    62.448

 Iteration 34  CC energy:   -71.36001625  Energy decrease:   0.00000001
 ======================================================================
 Norm of residual vector:     0.00000043
 CPU time [min]:    63.229                   Wall time [min]:    64.231

 Iteration 35  CC energy:   -71.36001626  Energy decrease:   0.00000001
 ======================================================================
 Norm of residual vector:     0.00000023
 CPU time [min]:    65.063                   Wall time [min]:    66.078

 Iteration 36  CC energy:   -71.36001625  Energy decrease:   0.00000001
 ======================================================================
 Norm of residual vector:     0.00000012
 CPU time [min]:    66.795                   Wall time [min]:    67.824

 Iteration 37  CC energy:   -71.36001625  Energy decrease:   1.1879E-09
 ======================================================================
 Norm of residual vector:     0.00000006
 CPU time [min]:    68.381                   Wall time [min]:    69.422

 Iteration 38  CC energy:   -71.36001625  Energy decrease:   3.6960E-10
 ======================================================================

 Iteration has converged in 38 steps.

 Final results:
 Total CCSDT energy [au]:            -71.360016250984
 Total MP2 energy [au]:              -71.320536994403

 Perturbative corrections are calculated...
 ======================================================================
 Spin case  1   Alpha:  0   Beta:  4
 Number of excitations:        1149870
 CPU time [min]:    71.710                   Wall time [min]:    72.755
 ======================================================================
 Spin case  2   Alpha:  1   Beta:  3
 Number of excitations:        73482454
 CPU time [min]:   129.552                   Wall time [min]:   130.594
 ======================================================================
 Spin case  3   Alpha:  2   Beta:  2
 Number of excitations:        376448378
 CPU time [min]:   278.869                   Wall time [min]:   279.915
 ======================================================================
 Spin case  4   Alpha:  3   Beta:  1
 Number of excitations:        238663319
 CPU time [min]:   390.960                   Wall time [min]:   392.014
 ======================================================================
 Spin case  5   Alpha:  4   Beta:  0
 Number of excitations:        13840895
 CPU time [min]:   400.460                   Wall time [min]:   401.525
 ======================================================================
 Number of 4-fold excitations: 703584916
 CPU time [min]:   400.460                   Wall time [min]:   401.526

 Total CCSDT[Q] energy [au]:         -71.360087311714
 Total CCSDT(Q) energy [au]:         -71.362259248266

 ************************ 2018-06-15 21:39:28 *************************
                      Normal termination of mrcc.
 **********************************************************************
 !CCSDT STATE 1.6 Energy              -71.360016250984
 !MP2 STATE 1.6 Energy                -71.320536994403
 !CCSDT[Q] STATE 1.6 Energy           -71.360087311714
 !CCSDT(Q) STATE 1.6 Energy           -71.362259248266
 
 CPU-time for MRCC:          24027.6 sec
 Elapsed-time for MRCC:      24098.2 sec

 Variable memory set to 8000000000 words,  buffer space   230000 words



 **********************************************************************************************************************************
 DATASETS  * FILE   NREC   LENGTH (MB)   RECORD NAMES
              1      20       23.62       500      610      700      900      950      970     1000      129      960     1100   
                                          VAR    BASINP    GEOM    SYMINP    ZMAT    AOBASIS   BASIS     P2S    ABASIS      S 
                                         1400     1410     1420     1200     1210     1080     1600     1650     1300     1700   
                                         EKIN       V       ECP      H0       H01     AOSYM     SMH    MOLCAS    ERIS     OPER   

              2       5        5.35       700     1000      520     2100     2200   
                                         GEOM     BASIS   MCVARS     RHF      UHF  

 PROGRAMS   *        TOTAL      MRCC       UHF        HF       INT
 CPU TIMES  *     24042.35  24039.55      0.03      0.08      2.59
 REAL TIME  *     24182.66 SEC
 DISK USED  *        40.32 MB      
 **********************************************************************************************************************************
 SETTING POSTHF(I)      =       -71.36225925  AU                              
                                                                                                                                                                                                                                                                

        SCF            POSTHF        EKIN           POT
    -70.88692814   -71.36225925   34.53927540   -12.76863916
                                                  

 CCSDT(Q)/USERDEF energy=    -71.362259248266

        CCSDT(Q)        UHF-SCF         HF-SCF  
    -71.36225925    -70.88692814    -70.88692814
 **********************************************************************************************************************************
 Variable memory released
