
 Primary working directories    : /global/cscratch1/sd/aannabe
 Secondary working directories  : /global/cscratch1/sd/aannabe
 Wavefunction directory         : /global/homes/a/aannabe/wfu/
 Main file repository           : /global/cscratch1/sd/aannabe/

 SHA1      : 2873118e99aab1bc19f5b6fc1784693c06d15c95
 NAME      : 2015.1.8
 ARCHNAME  : linux/x86_64
 FC        : /opt/cray/pe/craype/2.5.5/bin/ftn
 BLASLIB   : -Wl,-_start-group /opt/intel/compilers_and_libraries_2016.3.210/linux/mkl/lib/intel64/libmkl_intel_ilp64.a /opt/intel/compilers_and_libraries_2016.3.210/linux/mkl/lib/intel64/libmkl_intel_thread.a /opt/intel/compilers_and_libraries_2016.3.210/linux/mkl/lib/intel64/libmkl_core.a -Wl,-_end-group
 id        : lbl

 Nodes     nprocs
 nid00478     1

 Using customized tuning parameters: mindgm=8; mindgv=16; mindgc=4; mindgr=1; noblas=0; minvec=7
 default implementation of scratch files=df  

 ***,S
 memory,512,m
 gthresh,twoint=1.e-12
 
 gprint,basis,orbitals
 gexpec,ekin,pot
 
 angstrom
 geometry={
 1                                                                               ! Number of atoms
 S 0.0 0.0 0.0
 }
 
 basis={
 Including file /global/homes/a/aannabe/docs/accurate/ccECP_Kh/pps/S.pp
 Including file /global/homes/a/aannabe/docs/accurate/ccECP_Kh/basis/aug-cc-pVnZ/S_qz.basis
 }
 
 {rhf
  start,atden
  wf,6,7,2
  occ,1,1,1,0,1,0,0,0
  open,1.3,1.5
  orbital,4202.2
 }
 {multi
  maxiter,40
  start,4202.2
  occ,1,1,1,0,1,0,0,0
  closed,1,0,0,0,0,0,0
  wf,6,4,2;state,1
  wf,6,6,2;state,1
  wf,6,7,2;state,1
  natorb,ci,print
  orbital,5202.2
 }
 {rhf,nitord=1,maxit=0
  start,5202.2
  wf,6,7,2
  occ,1,1,1,0,1,0,0,0
  open,1.3,1.5
 }
 
 scf(i)=energy
 
 _CC_NORM_MAX=2.0
 {uccsd(t)
 maxit,100
 core
 }
 posthf(i)=energy
 
 table,scf,posthf,ekin,pot
 save,4.csv,new
 
 

 Variables initialized (889), CPU time= 0.01 sec
 Commands  initialized (702), CPU time= 0.01 sec, 572 directives.
 Default parameters read. Elapsed time= 0.21 sec

 Checking input...
 Passed
1


                                         ***  PROGRAM SYSTEM MOLPRO  ***
                                       Copyright, TTI GmbH Stuttgart, 2015
                                    Version 2015.1 linked Sep  7 2016 23:09:38


 **********************************************************************************************************************************
 LABEL *   S                                                                             
  64 bit serial version                                                                  DATE: 30-Oct-18          TIME: 19:56:21  
 **********************************************************************************************************************************

 SHA1:             2873118e99aab1bc19f5b6fc1784693c06d15c95
 **********************************************************************************************************************************

 THRESHOLDS:

 ZERO    =  1.00D-12  ONEINT  =  1.00D-12  TWOINT  =  1.00D-12  PREFAC  =  1.00D-14  LOCALI  =  1.00D-09  EORDER  =  1.00D-04
 ENERGY  =  0.00D+00  ETEST   =  0.00D+00  EDENS   =  0.00D+00  THRDEDEF=  1.00D-06  GRADIENT=  1.00D-02  STEP    =  1.00D-03
 ORBITAL =  1.00D-05  CIVEC   =  1.00D-05  COEFF   =  1.00D-04  PRINTCI =  5.00D-02  PUNCHCI =  9.90D+01  OPTGRAD =  3.00D-04
 OPTENERG=  1.00D-06  OPTSTEP =  3.00D-04  THRGRAD =  1.00D-10  COMPRESS=  1.00D-11  VARMIN  =  1.00D-07  VARMAX  =  1.00D-03
 THRDOUB =  0.00D+00  THRDIV  =  1.00D-05  THRRED  =  1.00D-07  THRPSP  =  1.00D+00  THRDC   =  1.00D-10  THRCS   =  1.00D-10
 THRNRM  =  1.00D-08  THREQ   =  0.00D+00  THRDE   =  1.00D+00  THRREF  =  1.00D-05  SPARFAC =  1.00D+00  THRDLP  =  1.00D-07
 THRDIA  =  1.00D-10  THRDLS  =  1.00D-07  THRGPS  =  0.00D+00  THRKEX  =  0.00D+00  THRDIS  =  2.00D-01  THRVAR  =  1.00D-10
 THRLOC  =  1.00D-06  THRGAP  =  1.00D-06  THRLOCT = -1.00D+00  THRGAPT = -1.00D+00  THRORB  =  1.00D-06  THRMLTP =  0.00D+00
 THRCPQCI=  1.00D-10  KEXTA   =  0.00D+00  THRCOARS=  0.00D+00  SYMTOL  =  1.00D-06  GRADTOL =  1.00D-06  THROVL  =  1.00D-08
 THRORTH =  1.00D-08  GRID    =  1.00D-06  GRIDMAX =  1.00D-03  DTMAX   =  0.00D+00  THROCCDE=  1.00D-01  THROCCDE=  1.00D-01



 ZUNIT=ANG
 

Geometry recognized as XYZ


 Variable memory set to  512000000 words,  buffer space   230000 words

 SETTING BASIS          =    USERDEF


 Recomputing integrals since basis changed


 Using spherical harmonics



 PROGRAM * SEWARD (Integral evaluation for generally contracted gaussian basis sets)     Author: Roland Lindh, 1990

 Geometry written to block  1 of record 700

 Orientation using atomic masses  
 Molecule type: Atom
 Symmetry elements: X,Y,Z
 Rotational constants:       0.0000000      0.0000000      0.0000000 GHz  (calculated with average atomic masses)

 Point group  D2h 



 ATOMIC COORDINATES

 NR  ATOM    CHARGE       X              Y              Z

   1  S       6.00    0.000000000    0.000000000    0.000000000


          S   CORE POTENTIAL

          d POTENTIAL

 POWERS             1              3              2
 EXPONENTIALS   6.151144       11.56157       5.390961    
 COEFFICIENTS   6.000000       36.90686      -19.81953    

          s - d POTENTIAL

 POWERS             2              2
 EXPONENTIALS   16.11769       3.608629    
 COEFFICIENTS   15.92575       38.51590    

          p - d POTENTIAL

 POWERS             2              2
 EXPONENTIALS   6.228956       2.978074    
 COEFFICIENTS   8.062221       18.73753    


 BASIS DATA

   Nr Sym  Nuc  Type         Exponents   Contraction coefficients

    1.1 Ag    1  1s          14.052570     0.002102
                              7.864913    -0.011042
                              4.401818     0.086618
                              2.463600    -0.271004
                              1.378823    -0.151274
                              0.771696     0.136044
                              0.431901     0.394360
                              0.241726     0.432098
                              0.135289     0.230974
                              0.075718     0.051205
    2.1 Ag    1  1s           0.818729     1.000000
    3.1 Ag    1  1s           0.332501     1.000000
    4.1 Ag    1  1s           0.135035     1.000000
    5.1 Ag    1  1s           0.064704     1.000000
    6.1 Ag    1  3d0          1.681890     1.000000
    7.1 Ag    1  3d2+         1.681890     1.000000
    8.1 Ag    1  3d0          0.613672     1.000000
    9.1 Ag    1  3d2+         0.613672     1.000000
   10.1 Ag    1  3d0          0.223911     1.000000
   11.1 Ag    1  3d2+         0.223911     1.000000
   12.1 Ag    1  3d0          0.088063     1.000000
   13.1 Ag    1  3d2+         0.088063     1.000000
   14.1 Ag    1  5g0          0.691446     1.000000
   15.1 Ag    1  5g4+         0.691446     1.000000
   16.1 Ag    1  5g2+         0.691446     1.000000
   17.1 Ag    1  5g0          0.300224     1.000000
   18.1 Ag    1  5g4+         0.300224     1.000000
   19.1 Ag    1  5g2+         0.300224     1.000000
    1.2 B3u   1  2px          6.808844    -0.003573
                              3.941560     0.001903
                              2.281723    -0.065016
                              1.320863     0.042305
                              0.764632     0.158772
                              0.442637     0.278172
                              0.256237     0.293821
                              0.148333     0.248015
                              0.085868     0.114905
                              0.049708     0.032934
    2.2 B3u   1  2px          2.088209     1.000000
    3.2 B3u   1  2px          0.838124     1.000000
    4.2 B3u   1  2px          0.336390     1.000000
    5.2 B3u   1  2px          0.159376     1.000000
    6.2 B3u   1  4f1+         0.898397     1.000000
    7.2 B3u   1  4f3+         0.898397     1.000000
    8.2 B3u   1  4f1+         0.339271     1.000000
    9.2 B3u   1  4f3+         0.339271     1.000000
   10.2 B3u   1  4f1+         0.145572     1.000000
   11.2 B3u   1  4f3+         0.145572     1.000000
    1.3 B2u   1  2py          6.808844    -0.003573
                              3.941560     0.001903
                              2.281723    -0.065016
                              1.320863     0.042305
                              0.764632     0.158772
                              0.442637     0.278172
                              0.256237     0.293821
                              0.148333     0.248015
                              0.085868     0.114905
                              0.049708     0.032934
    2.3 B2u   1  2py          2.088209     1.000000
    3.3 B2u   1  2py          0.838124     1.000000
    4.3 B2u   1  2py          0.336390     1.000000
    5.3 B2u   1  2py          0.159376     1.000000
    6.3 B2u   1  4f1-         0.898397     1.000000
    7.3 B2u   1  4f3-         0.898397     1.000000
    8.3 B2u   1  4f1-         0.339271     1.000000
    9.3 B2u   1  4f3-         0.339271     1.000000
   10.3 B2u   1  4f1-         0.145572     1.000000
   11.3 B2u   1  4f3-         0.145572     1.000000
    1.4 B1g   1  3d2-         1.681890     1.000000
    2.4 B1g   1  3d2-         0.613672     1.000000
    3.4 B1g   1  3d2-         0.223911     1.000000
    4.4 B1g   1  3d2-         0.088063     1.000000
    5.4 B1g   1  5g2-         0.691446     1.000000
    6.4 B1g   1  5g4-         0.691446     1.000000
    7.4 B1g   1  5g2-         0.300224     1.000000
    8.4 B1g   1  5g4-         0.300224     1.000000
    1.5 B1u   1  2pz          6.808844    -0.003573
                              3.941560     0.001903
                              2.281723    -0.065016
                              1.320863     0.042305
                              0.764632     0.158772
                              0.442637     0.278172
                              0.256237     0.293821
                              0.148333     0.248015
                              0.085868     0.114905
                              0.049708     0.032934
    2.5 B1u   1  2pz          2.088209     1.000000
    3.5 B1u   1  2pz          0.838124     1.000000
    4.5 B1u   1  2pz          0.336390     1.000000
    5.5 B1u   1  2pz          0.159376     1.000000
    6.5 B1u   1  4f0          0.898397     1.000000
    7.5 B1u   1  4f2+         0.898397     1.000000
    8.5 B1u   1  4f0          0.339271     1.000000
    9.5 B1u   1  4f2+         0.339271     1.000000
   10.5 B1u   1  4f0          0.145572     1.000000
   11.5 B1u   1  4f2+         0.145572     1.000000
    1.6 B2g   1  3d1+         1.681890     1.000000
    2.6 B2g   1  3d1+         0.613672     1.000000
    3.6 B2g   1  3d1+         0.223911     1.000000
    4.6 B2g   1  3d1+         0.088063     1.000000
    5.6 B2g   1  5g1+         0.691446     1.000000
    6.6 B2g   1  5g3+         0.691446     1.000000
    7.6 B2g   1  5g1+         0.300224     1.000000
    8.6 B2g   1  5g3+         0.300224     1.000000
    1.7 B3g   1  3d1-         1.681890     1.000000
    2.7 B3g   1  3d1-         0.613672     1.000000
    3.7 B3g   1  3d1-         0.223911     1.000000
    4.7 B3g   1  3d1-         0.088063     1.000000
    5.7 B3g   1  5g1-         0.691446     1.000000
    6.7 B3g   1  5g3-         0.691446     1.000000
    7.7 B3g   1  5g1-         0.300224     1.000000
    8.7 B3g   1  5g3-         0.300224     1.000000
    1.8 Au    1  4f2-         0.898397     1.000000
    2.8 Au    1  4f2-         0.339271     1.000000
    3.8 Au    1  4f2-         0.145572     1.000000

 NUCLEAR CHARGE:                    6
 NUMBER OF PRIMITIVE AOS:         140
 NUMBER OF SYMMETRY AOS:          115
 NUMBER OF CONTRACTIONS:           79   (  19Ag  +  11B3u +  11B2u +   8B1g +  11B1u +   8B2g +   8B3g +   3Au  )
 NUMBER OF CORE ORBITALS:           0   (   0Ag  +   0B3u +   0B2u +   0B1g +   0B1u +   0B2g +   0B3g +   0Au  )
 NUMBER OF VALENCE ORBITALS:        4   (   1Ag  +   1B3u +   1B2u +   0B1g +   1B1u +   0B2g +   0B3g +   0Au  )


 NUCLEAR REPULSION ENERGY    0.00000000

 EXTRA SYMMETRY OF AOS IN SYMMETRY 1:   1 1 1 1 1 2 3 2 3 2   3 2 3 4 5 6 4 5 6
 EXTRA SYMMETRY OF AOS IN SYMMETRY 2:   1 1 1 1 1 2 3 2 3 2   3
 EXTRA SYMMETRY OF AOS IN SYMMETRY 3:   1 1 1 1 1 2 3 2 3 2   3
 EXTRA SYMMETRY OF AOS IN SYMMETRY 4:   1 1 1 1 2 3 2 3
 EXTRA SYMMETRY OF AOS IN SYMMETRY 5:   1 1 1 1 1 2 3 2 3 2   3
 EXTRA SYMMETRY OF AOS IN SYMMETRY 6:   1 1 1 1 2 3 2 3
 EXTRA SYMMETRY OF AOS IN SYMMETRY 7:   1 1 1 1 2 3 2 3

 Eigenvalues of metric

         1 0.309E-02 0.173E-01 0.108E+00 0.108E+00 0.167E+00 0.372E+00 0.372E+00 0.372E+00
         2 0.199E-02 0.341E-01 0.187E+00 0.187E+00 0.210E+00 0.810E+00 0.810E+00 0.110E+01
         3 0.199E-02 0.341E-01 0.187E+00 0.187E+00 0.210E+00 0.810E+00 0.810E+00 0.110E+01
         4 0.108E+00 0.372E+00 0.372E+00 0.408E+00 0.118E+01 0.163E+01 0.163E+01 0.230E+01
         5 0.199E-02 0.341E-01 0.187E+00 0.187E+00 0.210E+00 0.810E+00 0.810E+00 0.110E+01
         6 0.108E+00 0.372E+00 0.372E+00 0.408E+00 0.118E+01 0.163E+01 0.163E+01 0.230E+01
         7 0.108E+00 0.372E+00 0.372E+00 0.408E+00 0.118E+01 0.163E+01 0.163E+01 0.230E+01
         8 0.187E+00 0.810E+00 0.200E+01


 Contracted 2-electron integrals neglected if value below      1.0D-12
 AO integral compression algorithm  1   Integral accuracy      1.0D-12

     6.291 MB (compressed) written to integral file ( 66.9%)


 NUMBER OF SORTED TWO-ELECTRON INTEGRALS:     665704.     BUFFER LENGTH:  32768
 NUMBER OF SEGMENTS:   1  SEGMENT LENGTH:     665704      RECORD LENGTH: 524288

 Memory used in sort:       1.22 MW

 SORT1 READ     1222209. AND WROTE      500866. INTEGRALS IN      2 RECORDS. CPU TIME:     0.03 SEC, REAL TIME:     0.06 SEC
 SORT2 READ      500866. AND WROTE      665704. INTEGRALS IN     24 RECORDS. CPU TIME:     0.06 SEC, REAL TIME:     0.12 SEC

 FILE SIZES:   FILE 1:    25.5 MBYTE,  FILE 4:     8.4 MBYTE,   TOTAL:     33.9 MBYTE

 OPERATOR DM      FOR CENTER  0  COORDINATES:    0.000000    0.000000    0.000000
 OPERATOR EKIN    FOR CENTER  0  COORDINATES:    0.000000    0.000000    0.000000
 OPERATOR POT     FOR CENTER  0  COORDINATES:    0.000000    0.000000    0.000000


 **********************************************************************************************************************************
 DATASETS  * FILE   NREC   LENGTH (MB)   RECORD NAMES
              1      20       22.69       500      610      700      900      950      970     1000      129      960     1100   
                                          VAR    BASINP    GEOM    SYMINP    ZMAT    AOBASIS   BASIS     P2S    ABASIS      S 
                                         1400     1410     1420     1200     1210     1080     1600     1650     1300     1700   
                                         EKIN       V       ECP      H0       H01     AOSYM     SMH    MOLCAS    ERIS     OPER   

 PROGRAMS   *        TOTAL       INT
 CPU TIMES  *         0.68      0.56
 REAL TIME  *         2.09 SEC
 DISK USED  *        34.23 MB      
 **********************************************************************************************************************************


 PROGRAM * RHF-SCF (OPEN SHELL)       Authors: W. Meyer, H.-J. Werner


 NUMBER OF ELECTRONS:       4+    2-    SPACE SYMMETRY=7    SPIN SYMMETRY: Triplet 
 CONVERGENCE THRESHOLDS:    1.00E-05 (Density)    1.00E-07 (Energy)
 MAX. NUMBER OF ITERATIONS:       60
 INTERPOLATION TYPE:            DIIS
 INTERPOLATION STEPS:              2 (START)      1 (STEP)
 LEVEL SHIFTS:                 -0.60 (CLOSED) -0.30 (OPEN) 


 Singly occupied orbitals:      1.3       1.5

   Atom=S  basis=ECP10MWB_GUESS    lmin=0  lmax=1

 Orbital guess generated from atomic densities. Full valence occupancy:    1   1   1   0   1   0   0   0


 Molecular orbital dump at record        4202.2

 ITERATION    DDIFF          GRAD             ENERGY        2-EL.EN.            DIPOLE MOMENTS         DIIS   ORB.
    1      0.000D+00      0.000D+00        -9.91267109     12.506535    0.00000    0.00000    0.00000    0    start
    2      0.000D+00      0.748D-02        -9.91946233     12.705720    0.00000    0.00000    0.00000    1    diag,B
    3      0.427D-01      0.225D-02        -9.92047629     12.777032    0.00000    0.00000    0.00000    2    diag,B
    4      0.236D-01      0.780D-03        -9.92060227     12.793855    0.00000    0.00000    0.00000    3    diag,B
    5      0.123D-01      0.151D-03        -9.92060586     12.794525    0.00000    0.00000    0.00000    4    diag,B
    6      0.223D-02      0.209D-04        -9.92060593     12.794435    0.00000    0.00000    0.00000    5    diag,B
    7      0.926D-04      0.790D-05        -9.92060594     12.794284    0.00000    0.00000    0.00000    6    fixocc
    8      0.166D-03      0.229D-05        -9.92060594     12.794281    0.00000    0.00000    0.00000    7    diag,B
    9      0.708D-04      0.609D-06        -9.92060594     12.794271    0.00000    0.00000    0.00000    8    diag,B
   10      0.194D-04      0.116D-06        -9.92060594     12.794271    0.00000    0.00000    0.00000    9    orth
   11      0.184D-05      0.247D-07        -9.92060594     12.794271    0.00000    0.00000    0.00000    0    orth

 Final alpha occupancy:   1   1   1   0   1   0   0   0
 Final beta  occupancy:   1   1   0   0   0   0   0   0

 !RHF STATE 1.7 Energy                 -9.920605941328
 Nuclear energy                         0.00000000
 One-electron energy                  -16.31774139
 Two-electron energy                    6.39713544
 Virial quotient                       -2.67839362
 !RHF STATE 1.7 Dipole moment           0.00000000     0.00000000     0.00000000
 Dipole moment /Debye                   0.00000000     0.00000000     0.00000000
 

 !RHF expec          <1.7|EKIN|1.7>     3.703938760083
 
 !RHF expec           <1.7|POT|1.7>    -3.636159545177

 ELECTRON ORBITALS
 =================


   Orb  Occ    Energy  Couls-En    Coefficients

                                   1 1s      1 1s      1 1s      1 1s      1 1s      1 3d0     1 3d2+    1 3d0     1 3d2+    1 3d0  
                                   1 3d2+    1 3d0     1 3d2+    1 5g0     1 5g4+    1 5g2+    1 5g0     1 5g4+    1 5g2+ 

   1.1   2    -0.8838   -3.9816  1.000009 -0.000074  0.000304 -0.000355  0.000085 -0.000556  0.000963  0.000117 -0.000203 -0.002238
                                 0.003876 -0.001393  0.002414  0.000002  0.000004 -0.000003 -0.000016 -0.000032  0.000024

                                   1 2px     1 2px     1 2px     1 2px     1 2px     1 4f1+    1 4f3+    1 4f1+    1 4f3+    1 4f1+ 
                                   1 4f3+ 

   1.2   2    -0.3962   -2.9089  1.169809  0.014077 -0.045842 -0.095471 -0.053067  0.001955 -0.002524  0.003746 -0.004835  0.001842
                                -0.002379

                                   1 2py     1 2py     1 2py     1 2py     1 2py     1 4f1-    1 4f3-    1 4f1-    1 4f3-    1 4f1- 
                                   1 4f3- 

   1.3   +    -0.4818   -3.0301  0.845069 -0.013078  0.041986  0.090561  0.044017  0.001522 -0.005894  0.002776 -0.010751  0.000990
                                -0.003836

                                   1 2pz     1 2pz     1 2pz     1 2pz     1 2pz     1 4f0     1 4f2+    1 4f0     1 4f2+    1 4f0  
                                   1 4f2+ 

   1.5   +    -0.4818   -3.0301  0.845069 -0.013078  0.041986  0.090561  0.044017  0.003728 -0.004813  0.006799 -0.008778  0.002426
                                -0.003132

 HOMO      1.2    -0.396162 =     -10.7801eV
 LUMO      2.1     0.120604 =       3.2818eV
 LUMO-HOMO         0.516766 =      14.0619eV


 **********************************************************************************************************************************
 DATASETS  * FILE   NREC   LENGTH (MB)   RECORD NAMES
              1      20       22.69       500      610      700      900      950      970     1000      129      960     1100   
                                          VAR    BASINP    GEOM    SYMINP    ZMAT    AOBASIS   BASIS     P2S    ABASIS      S 
                                         1400     1410     1420     1200     1210     1080     1600     1650     1300     1700   
                                         EKIN       V       ECP      H0       H01     AOSYM     SMH    MOLCAS    ERIS     OPER   

              2       4        2.78       700     1000      520     4202   
                                         GEOM     BASIS   MCVARS     RHF  

 PROGRAMS   *        TOTAL       RHF       INT
 CPU TIMES  *         0.74      0.06      0.56
 REAL TIME  *         2.39 SEC
 DISK USED  *        34.23 MB      
 **********************************************************************************************************************************


 PROGRAM * MULTI (Direct Multiconfiguration SCF)       Authors: P.J. Knowles, H.-J. Werner (1984)     S.T. Elbert (1988)


 Number of closed-shell orbitals:   1 (   1   0   0   0   0   0   0   0 )
 Number of active  orbitals:        3 (   0   1   1   0   1   0   0   0 )
 Number of external orbitals:      75 (  18  10  10   8  10   8   8   3 )

 State symmetry 1

 Number of electrons:     4    Spin symmetry=Triplet   Space symmetry=4
 Number of states:        1
 Number of CSFs:          1   (1 determinants, 3 intermediate states)

 State symmetry 2

 Number of electrons:     4    Spin symmetry=Triplet   Space symmetry=6
 Number of states:        1
 Number of CSFs:          1   (1 determinants, 3 intermediate states)

 State symmetry 3

 Number of electrons:     4    Spin symmetry=Triplet   Space symmetry=7
 Number of states:        1
 Number of CSFs:          1   (1 determinants, 3 intermediate states)

 Iteration controls:
             1  2  3  4  5  6  7  8  9 10 11 12 13 14 15 16 17 18 19 20 21 22 23 24 25 26 27 28 29 30 31 32 33 34 35 36 37 38 39
 DIAGCI      T  T  T  T  T  T  T  T  T  T  T  T  T  T  T  T  T  T  T  T  T  T  T  T  T  T  T  T  T  T  T  T  T  T  T  T  T  T  T
 WERNER      T  T  T  T  T  T  T  T  T  T  T  T  T  T  T  T  T  T  T  T  T  T  T  T  T  T  T  T  T  T  T  T  T  T  T  T  T  T  T
 INTERNAL    F  T  T  T  T  T  T  T  T  T  T  T  T  T  T  T  T  T  T  T  T  T  T  T  T  T  T  T  T  T  T  T  T  T  T  T  T  T  T

 Molecular orbitals read from record     4202.2  Type=RHF/CANONICAL (state 1.7)
 *** IN SYMMETRY 1 ORBITAL  1 SYMMETRY CONTAMINATION OF 0.117D-01 HAS BEEN REMOVED

 EXTRA SYMMETRY OF MOS IN SYMMETRY 1:   1 1 2 3 2 3 1 4 5 6   2 3 1 4 5 6 2 3 1
 *** IN SYMMETRY 2 ORBITAL  1 SYMMETRY CONTAMINATION OF 0.124D-01 HAS BEEN REMOVED
 EXTRA SYMMETRY OF MOS IN SYMMETRY 2:   1 1 2 3 1 2 3 1 2 3   1
 *** IN SYMMETRY 3 ORBITAL  1 SYMMETRY CONTAMINATION OF 0.243D-01 HAS BEEN REMOVED
 EXTRA SYMMETRY OF MOS IN SYMMETRY 3:   1 1 2 3 1 2 3 1 2 3   1
 EXTRA SYMMETRY OF MOS IN SYMMETRY 4:   1 1 2 3 1 2 3 1
 *** IN SYMMETRY 5 ORBITAL  1 SYMMETRY CONTAMINATION OF 0.279D-01 HAS BEEN REMOVED
 EXTRA SYMMETRY OF MOS IN SYMMETRY 5:   1 1 2 3 1 2 3 1 2 3   1
 EXTRA SYMMETRY OF MOS IN SYMMETRY 6:   1 1 3 2 1 3 2 1
 EXTRA SYMMETRY OF MOS IN SYMMETRY 7:   1 1 2 3 1 2 3 1

 Wavefunction dump at record             5202.2

 Convergence thresholds  0.10E-01 (gradient)  0.10E-05 (energy)  0.10E-02 (step length)

 Weight factors for state symmetry  1:    0.33333
 Weight factors for state symmetry  2:    0.33333
 Weight factors for state symmetry  3:    0.33333

 Number of orbital rotations:       48   (     0 Core/Active     18 Core/Virtual   0 Active/Active     30 Active/Virtual)
 Total number of variables:         51


 ITER. MIC  NCI  NEG     ENERGY(VAR)     ENERGY(PROJ)   ENERGY CHANGE     GRAD(0)  GRAD(ORB)   GRAD(CI)     STEP       TIME

   1   21   12    0      -9.91715597      -9.91821602   -0.00106005    0.03071752 0.00000000 0.00000000  0.39D-01      0.02
   2   13   12    0      -9.91821901      -9.91821904   -0.00000003    0.00017930 0.00000000 0.00000000  0.18D-03      0.03
   3   15   12    0      -9.91821904      -9.91821904   -0.00000000    0.00000001 0.00000000 0.00000000  0.61D-08      0.06

 ** WVFN ****  CONVERGENCE REACHED, FINAL GRADIENT:  0.53D-13



 Results for state 1.4
 =====================

 !MCSCF STATE 1.4 Energy               -9.918219036097
 Nuclear energy                         0.00000000
 Kinetic energy                         3.70169403
 One electron energy                  -16.32070729
 Two electron energy                    6.40248826
 Virial ratio                           3.67937300

 !MCSCF STATE 1.4 Dipole moment         0.00000000     0.00000000     0.00000000
 Dipole moment /Debye                   0.00000000     0.00000000     0.00000000



 Results for state 1.6
 =====================

 !MCSCF STATE 1.6 Energy               -9.918219036097
 Nuclear energy                         0.00000000
 Kinetic energy                         3.70169403
 One electron energy                  -16.32070729
 Two electron energy                    6.40248826
 Virial ratio                           3.67937300

 !MCSCF STATE 1.6 Dipole moment         0.00000000     0.00000000     0.00000000
 Dipole moment /Debye                   0.00000000     0.00000000     0.00000000



 Results for state 1.7
 =====================

 !MCSCF STATE 1.7 Energy               -9.918219036097
 Nuclear energy                         0.00000000
 Kinetic energy                         3.70169403
 One electron energy                  -16.32070729
 Two electron energy                    6.40248826
 Virial ratio                           3.67937300

 !MCSCF STATE 1.7 Dipole moment         0.00000000     0.00000000     0.00000000
 Dipole moment /Debye                   0.00000000     0.00000000     0.00000000

 State-averaged charge density matrix saved on record  5202.2 (density set 1)

 !MCSCF expec        <1.4|EKIN|1.4>     3.701694026840
 !MCSCF expec        <1.6|EKIN|1.6>     3.701694026840
 !MCSCF expec        <1.7|EKIN|1.7>     3.701694026840

 !MCSCF expec         <1.4|POT|1.4>    -3.636263424860
 !MCSCF expec         <1.6|POT|1.6>    -3.636263424860
 !MCSCF expec         <1.7|POT|1.7>    -3.636263424860


 NATURAL ORBITALS (state averaged)
 =================================

   Orb     Occ        Energy       Coefficients

                                   1 1s      1 1s      1 1s      1 1s      1 1s      1 3d0     1 3d2+    1 3d0     1 3d2+    1 3d0  
                                   1 3d2+    1 3d0     1 3d2+    1 5g0     1 5g4+    1 5g2+    1 5g0     1 5g4+    1 5g2+ 

   1.1  2.00000    -0.883651     0.999996 -0.000007  0.000034 -0.000063  0.000048  0.000000  0.000000  0.000000  0.000000  0.000000
                                 0.000000  0.000000  0.000000  0.000000  0.000000  0.000000  0.000000  0.000000  0.000000

                                   1 2px     1 2px     1 2px     1 2px     1 2px     1 4f1+    1 4f3+    1 4f1+    1 4f3+    1 4f1+ 
                                   1 4f3+ 

   1.2  1.33333    -0.283238     1.000137  0.000011 -0.000040 -0.000050 -0.000069  0.000000  0.000000  0.000000  0.000000  0.000000
                                 0.000000

                                   1 2py     1 2py     1 2py     1 2py     1 2py     1 4f1-    1 4f3-    1 4f1-    1 4f3-    1 4f1- 
                                   1 4f3- 

   1.3  1.33333    -0.283238     1.000137  0.000011 -0.000040 -0.000050 -0.000069  0.000000  0.000000  0.000000  0.000000  0.000000
                                 0.000000

                                   1 2pz     1 2pz     1 2pz     1 2pz     1 2pz     1 4f0     1 4f2+    1 4f0     1 4f2+    1 4f0  
                                   1 4f2+ 

   1.5  1.33333    -0.283238     1.000137  0.000011 -0.000040 -0.000050 -0.000069  0.000000  0.000000  0.000000  0.000000  0.000000
                                 0.000000
 

 EXTRA SYMMETRY OF MOS IN SYMMETRY 1:   1 1 2 3 3 2 1 6 4 5   2 3 1 5 6 4 3 2 1
 EXTRA SYMMETRY OF MOS IN SYMMETRY 2:   1 1 3 2 1 3 2 1 3 2   1
 EXTRA SYMMETRY OF MOS IN SYMMETRY 3:   1 1 3 2 1 3 2 1 3 2   1
 EXTRA SYMMETRY OF MOS IN SYMMETRY 4:   1 1 2 3 1 3 2 1
 EXTRA SYMMETRY OF MOS IN SYMMETRY 7:   1 1 3 2 1 3 2 1

 Natural orbital dump (state averaged) at molpro section  5202.2    (Orbital set 2)


 CI vector for state symmetry 1
 ==============================

 a a 2           1.0000000

 TOTAL ENERGIES                        -9.91821904

 CI vector for state symmetry 2
 ==============================

 a 2 a           1.0000000

 TOTAL ENERGIES                        -9.91821904

 CI vector for state symmetry 3
 ==============================

 2 a a           1.0000000

 TOTAL ENERGIES                        -9.91821904



 **********************************************************************************************************************************
 DATASETS  * FILE   NREC   LENGTH (MB)   RECORD NAMES
              1      21       22.81       500      610      700      900      950      970     1000      129      960     1100   
                                          VAR    BASINP    GEOM    SYMINP    ZMAT    AOBASIS   BASIS     P2S    ABASIS      S 
                                         1400     1410     1420     1200     1210     1080     1600     1650     1300     1700   
                                         EKIN       V       ECP      H0       H01     AOSYM     SMH    MOLCAS    ERIS     OPER   
                                         1380   
                                         JKOP   

              2       5        5.31       700     1000      520     4202     5202   
                                         GEOM     BASIS   MCVARS     RHF     MCSCF   

 PROGRAMS   *        TOTAL     MULTI       RHF       INT
 CPU TIMES  *         0.82      0.07      0.06      0.56
 REAL TIME  *         3.67 SEC
 DISK USED  *        37.65 MB      
 **********************************************************************************************************************************


 PROGRAM * RHF-SCF (OPEN SHELL)       Authors: W. Meyer, H.-J. Werner


 NUMBER OF ELECTRONS:       4+    2-    SPACE SYMMETRY=7    SPIN SYMMETRY: Triplet 
 CONVERGENCE THRESHOLDS:    1.00E-05 (Density)    1.00E-07 (Energy)
 MAX. NUMBER OF ITERATIONS:        0
 INTERPOLATION TYPE:            DIIS
 INTERPOLATION STEPS:              2 (START)      1 (STEP)
 LEVEL SHIFTS:                 -0.60 (CLOSED) -0.30 (OPEN) 


 Singly occupied orbitals:      1.3       1.5
 Molecular orbitals read from record     5202.2  Type=MCSCF/NATURAL (state averaged)

 Molecular orbital dump at record        2101.2

 ITERATION    DDIFF          GRAD             ENERGY        2-EL.EN.            DIPOLE MOMENTS         DIIS   ORB.
    1      0.000D+00      0.000D+00        -9.91821904     12.804977    0.00000    0.00000    0.00000    0    start

 Final alpha occupancy:   1   1   1   0   1   0   0   0
 Final beta  occupancy:   1   1   0   0   0   0   0   0

 !RHF STATE 1.7 Energy                 -9.918219036097
 Nuclear energy                         0.00000000
 One-electron energy                  -16.32070729
 Two-electron energy                    6.40248826
 Virial quotient                       -2.67937300
 !RHF STATE 1.7 Dipole moment           0.00000000     0.00000000     0.00000000
 Dipole moment /Debye                   0.00000000     0.00000000     0.00000000
 

 !RHF expec          <1.7|EKIN|1.7>     3.701694026840
 
 !RHF expec           <1.7|POT|1.7>    -3.636263424860

 ELECTRON ORBITALS
 =================


   Orb  Occ    Energy  Couls-En    Coefficients

                                   1 1s      1 1s      1 1s      1 1s      1 1s      1 3d0     1 3d2+    1 3d0     1 3d2+    1 3d0  
                                   1 3d2+    1 3d0     1 3d2+    1 5g0     1 5g4+    1 5g2+    1 5g0     1 5g4+    1 5g2+ 

   1.1   2    -0.8837   -3.9815  0.999996 -0.000007  0.000034 -0.000063  0.000048  0.000000  0.000000  0.000000  0.000000  0.000000
                                 0.000000  0.000000  0.000000  0.000000  0.000000  0.000000  0.000000  0.000000  0.000000

                                   1 2px     1 2px     1 2px     1 2px     1 2px     1 4f1+    1 4f3+    1 4f1+    1 4f3+    1 4f1+ 
                                   1 4f3+ 

   1.2   2    -0.2832   -2.8145  1.000137  0.000011 -0.000040 -0.000050 -0.000069  0.000000  0.000000  0.000000  0.000000  0.000000
                                 0.000000

                                   1 2py     1 2py     1 2py     1 2py     1 2py     1 4f1-    1 4f3-    1 4f1-    1 4f3-    1 4f1- 
                                   1 4f3- 

   1.3   +    -0.2832   -2.8145  1.000137  0.000011 -0.000040 -0.000050 -0.000069  0.000000  0.000000  0.000000  0.000000  0.000000
                                 0.000000

                                   1 2pz     1 2pz     1 2pz     1 2pz     1 2pz     1 4f0     1 4f2+    1 4f0     1 4f2+    1 4f0  
                                   1 4f2+ 

   1.5   +    -0.2832   -2.8145  1.000137  0.000011 -0.000040 -0.000050 -0.000069  0.000000  0.000000  0.000000  0.000000  0.000000
                                 0.000000

 HOMO      1.2    -0.283238 =      -7.7073eV
 LUMO      2.1     0.127870 =       3.4795eV
 LUMO-HOMO         0.411108 =      11.1868eV


 **********************************************************************************************************************************
 DATASETS  * FILE   NREC   LENGTH (MB)   RECORD NAMES
              1      21       22.81       500      610      700      900      950      970     1000      129      960     1100   
                                          VAR    BASINP    GEOM    SYMINP    ZMAT    AOBASIS   BASIS     P2S    ABASIS      S 
                                         1400     1410     1420     1200     1210     1080     1600     1650     1300     1700   
                                         EKIN       V       ECP      H0       H01     AOSYM     SMH    MOLCAS    ERIS     OPER   
                                         1380   
                                         JKOP   

              2       6        7.84       700     1000      520     4202     5202     2101   
                                         GEOM     BASIS   MCVARS     RHF     MCSCF     RHF  

 PROGRAMS   *        TOTAL       RHF     MULTI       RHF       INT
 CPU TIMES  *         0.86      0.03      0.07      0.06      0.56
 REAL TIME  *         3.77 SEC
 DISK USED  *        37.65 MB      
 **********************************************************************************************************************************
 SETTING SCF(I)         =        -9.91821904  AU                              
 SETTING _CC_NORM_MAX   =         2.00000000                                  


 PROGRAM * CCSD (Unrestricted open-shell coupled cluster)     Authors: C. Hampel, H.-J. Werner, 1991, M. Deegan, P.J. Knowles, 1992


 Convergence thresholds:  THRVAR = 1.00D-08  THRDEN = 1.00D-06

 CCSD(T)     terms to be evaluated (factor= 1.000)


 Number of closed-shell orbitals:   2 (   1   1   0   0   0   0   0   0 )
 Number of active  orbitals:        2 (   0   0   1   0   1   0   0   0 )
 Number of external orbitals:      75 (  18  10  10   8  10   8   8   3 )

 Memory could be reduced to 0.94 Mwords without degradation in triples

 Number of N-1 electron functions:               6
 Number of N-2 electron functions:              15
 Number of singly external CSFs:                78
 Number of doubly external CSFs:              8819
 Total number of CSFs:                        8897

 Molecular orbitals read from record     2101.2  Type=RHF/CANONICAL (state 1.7)

 Integral transformation finished. Total CPU:   0.02 sec, npass=  1  Memory used:   0.17 MW

 Starting RMP2 calculation

 ITER.      SQ.NORM     CORR.ENERGY   TOTAL ENERGY   ENERGY CHANGE        DEN1      VAR(S)    VAR(P)  DIIS     TIME
   1      1.05928423    -0.14393844   -10.06215748    -0.14393844    -0.00092362  0.44D-04  0.40D-03  1  1     0.02
   2      1.06042393    -0.14496748   -10.06318652    -0.00102904    -0.00000173  0.21D-06  0.68D-06  2  2     0.03
   3      1.06045050    -0.14497985   -10.06319889    -0.00001237    -0.00000000  0.15D-08  0.15D-08  3  3     0.03
   4      1.06045113    -0.14498006   -10.06319910    -0.00000021    -0.00000000  0.89D-11  0.31D-11  4  4     0.03

 Norm of t1 vector:      0.06322040      S-energy:    -0.00538732      T1 diagnostic:  0.01113582
 Norm of t2 vector:      0.23760116      P-energy:    -0.13959274
                                         Alpha-Beta:  -0.10973233
                                         Alpha-Alpha: -0.02610161
                                         Beta-Beta:   -0.00375879

 Spin contamination <S**2-Sz**2-Sz>     0.00571970
  Reference energy                     -9.918219036097
  RHF-RMP2 correlation energy          -0.144980059256
 !RHF-RMP2 energy                     -10.063199095352

 Starting UCCSD calculation

 ITER.      SQ.NORM     CORR.ENERGY   TOTAL ENERGY   ENERGY CHANGE        DEN1      VAR(S)    VAR(P)  DIIS     TIME
   1      1.07268541    -0.15723564   -10.07545468    -0.15723564    -0.00625997  0.40D-03  0.23D-02  1  1     0.05
   2      1.08222486    -0.16452067   -10.08273971    -0.00728503    -0.00019950  0.16D-04  0.72D-04  2  2     0.06
   3      1.08371579    -0.16514207   -10.08336110    -0.00062140    -0.00001257  0.11D-05  0.53D-05  3  3     0.08
   4      1.08414123    -0.16529792   -10.08351695    -0.00015585    -0.00000067  0.34D-07  0.31D-06  4  4     0.10
   5      1.08418556    -0.16530374   -10.08352278    -0.00000582    -0.00000006  0.25D-08  0.35D-07  5  5     0.11
   6      1.08419200    -0.16530444   -10.08352348    -0.00000070    -0.00000001  0.55D-09  0.52D-08  6  6     0.13

 Norm of t1 vector:      0.07788954      S-energy:    -0.00617488      T1 diagnostic:  0.01624096
                                                                       D1 diagnostic:  0.02402552
 Norm of t2 vector:      0.27950889      P-energy:    -0.15912955
                                         Alpha-Beta:  -0.12893441
                                         Alpha-Alpha: -0.02667939
                                         Beta-Beta:   -0.00351575

 Doubles amplitudes (print threshold =  0.500E-01):

         I         J         SYM. A    SYM. B    A         B      T(IJ, AB) [Alpha-Beta]

         4         1         1         5         5         1     -0.05208651

 Spin contamination <S**2-Sz**2-Sz>     0.00353526

 Memory could be reduced to 0.95 Mwords without degradation in triples
 

 RESULTS
 =======

  Reference energy                     -9.918219036097
  UCCSD singles energy                 -0.006174884408
  UCCSD pair energy                    -0.159129554967
  UCCSD correlation energy             -0.165304439375
  Triples (T) contribution             -0.006662846846
  Total correlation energy             -0.171967286221
 
  RHF-UCCSD energy                    -10.083523475472
  RHF-UCCSD[T] energy                 -10.090154485694
  RHF-UCCSD-T energy                  -10.090170080211
 !RHF-UCCSD(T) energy                 -10.090186322318

 Program statistics:

 Available memory in ccsd:               511999732
 Min. memory needed in ccsd:                 50442
 Max. memory used in ccsd:                   58484
 Max. memory used in cckext:                 76681 ( 6 integral passes)
 Max. memory used in cckint:                165612 ( 1 integral passes)



 **********************************************************************************************************************************
 DATASETS  * FILE   NREC   LENGTH (MB)   RECORD NAMES
              1      21       22.81       500      610      700      900      950      970     1000      129      960     1100   
                                          VAR    BASINP    GEOM    SYMINP    ZMAT    AOBASIS   BASIS     P2S    ABASIS      S 
                                         1400     1410     1420     1200     1210     1080     1600     1650     1300     1700   
                                         EKIN       V       ECP      H0       H01     AOSYM     SMH    MOLCAS    ERIS     OPER   
                                         1380   
                                         JKOP   

              2       6        7.84       700     1000      520     4202     5202     2101   
                                         GEOM     BASIS   MCVARS     RHF     MCSCF     RHF  

 PROGRAMS   *        TOTAL  UCCSD(T)       RHF     MULTI       RHF       INT
 CPU TIMES  *         1.07      0.21      0.03      0.07      0.06      0.56
 REAL TIME  *         5.25 SEC
 DISK USED  *        37.87 MB      
 **********************************************************************************************************************************
 SETTING POSTHF(I)      =       -10.09018632  AU                              
                                                                                                                                                                                                                                                                

       SCF            POSTHF       EKIN          POT
    -9.91821904   -10.09018632   3.70169403   -3.63626342
                                                  

 UCCSD(T)/USERDEF energy=    -10.090186322318

        UCCSD(T)        RHF-SCF         MULTI           RHF-SCF 
    -10.09018632     -9.91821904     -9.91821904     -9.92060594
 **********************************************************************************************************************************
 Variable memory released
