
 Primary working directories    : /global/cscratch1/sd/aannabe
 Secondary working directories  : /global/cscratch1/sd/aannabe
 Wavefunction directory         : /global/homes/a/aannabe/wfu/
 Main file repository           : /global/cscratch1/sd/aannabe/

 SHA1      : 2873118e99aab1bc19f5b6fc1784693c06d15c95
 NAME      : 2015.1.8
 ARCHNAME  : linux/x86_64
 FC        : /opt/cray/pe/craype/2.5.5/bin/ftn
 BLASLIB   : -Wl,-_start-group /opt/intel/compilers_and_libraries_2016.3.210/linux/mkl/lib/intel64/libmkl_intel_ilp64.a /opt/intel/compilers_and_libraries_2016.3.210/linux/mkl/lib/intel64/libmkl_intel_thread.a /opt/intel/compilers_and_libraries_2016.3.210/linux/mkl/lib/intel64/libmkl_core.a -Wl,-_end-group
 id        : lbl

 Nodes     nprocs
 nid00497     1

 Using customized tuning parameters: mindgm=8; mindgv=16; mindgc=4; mindgr=1; noblas=0; minvec=7
 default implementation of scratch files=df  

 ***,S
 memory,512,m
 gthresh,twoint=1.e-12
 
 gprint,basis,orbitals
 gexpec,ekin,pot
 
 angstrom
 geometry={
 1                                                                               ! Number of atoms
 S 0.0 0.0 0.0
 }
 
 basis={
 Including file /global/homes/a/aannabe/docs/accurate/ccECP_Kh/pps/S.pp
 Including file /global/homes/a/aannabe/docs/accurate/ccECP_Kh/basis/aug-cc-pVnZ/S_qz.basis
 }
 
 {rhf
  start,atden
  wf,6,7,2
  occ,1,1,1,0,1,0,0,0
  open,1.3,1.5
  orbital,4202.2
 }
 {multi
  maxiter,40
  start,4202.2
  occ,1,1,1,0,1,0,0,0
  closed,1,0,0,0,0,0,0
  wf,6,4,2;state,1
  wf,6,6,2;state,1
  wf,6,7,2;state,1
  natorb,ci,print
  orbital,5202.2
 }
 {rhf,nitord=1,maxit=0
  start,5202.2
  wf,6,7,2
  occ,1,1,1,0,1,0,0,0
  open,1.3,1.5
 }
 
 scf(i)=energy
 
 _CC_NORM_MAX=2.0
 {uccsd(t)
 maxit,100
 core
 }
 posthf(i)=energy
 
 table,scf,posthf,ekin,pot
 save,4.csv,new
 
 

 Variables initialized (889), CPU time= 0.00 sec
 Commands  initialized (702), CPU time= 0.01 sec, 572 directives.
 Default parameters read. Elapsed time= 0.18 sec

 Checking input...
 Passed
1


                                         ***  PROGRAM SYSTEM MOLPRO  ***
                                       Copyright, TTI GmbH Stuttgart, 2015
                                    Version 2015.1 linked Sep  7 2016 23:09:38


 **********************************************************************************************************************************
 LABEL *   S                                                                             
  64 bit serial version                                                                  DATE: 30-Oct-18          TIME: 13:38:18  
 **********************************************************************************************************************************

 SHA1:             2873118e99aab1bc19f5b6fc1784693c06d15c95
 **********************************************************************************************************************************

 THRESHOLDS:

 ZERO    =  1.00D-12  ONEINT  =  1.00D-12  TWOINT  =  1.00D-12  PREFAC  =  1.00D-14  LOCALI  =  1.00D-09  EORDER  =  1.00D-04
 ENERGY  =  0.00D+00  ETEST   =  0.00D+00  EDENS   =  0.00D+00  THRDEDEF=  1.00D-06  GRADIENT=  1.00D-02  STEP    =  1.00D-03
 ORBITAL =  1.00D-05  CIVEC   =  1.00D-05  COEFF   =  1.00D-04  PRINTCI =  5.00D-02  PUNCHCI =  9.90D+01  OPTGRAD =  3.00D-04
 OPTENERG=  1.00D-06  OPTSTEP =  3.00D-04  THRGRAD =  1.00D-10  COMPRESS=  1.00D-11  VARMIN  =  1.00D-07  VARMAX  =  1.00D-03
 THRDOUB =  0.00D+00  THRDIV  =  1.00D-05  THRRED  =  1.00D-07  THRPSP  =  1.00D+00  THRDC   =  1.00D-10  THRCS   =  1.00D-10
 THRNRM  =  1.00D-08  THREQ   =  0.00D+00  THRDE   =  1.00D+00  THRREF  =  1.00D-05  SPARFAC =  1.00D+00  THRDLP  =  1.00D-07
 THRDIA  =  1.00D-10  THRDLS  =  1.00D-07  THRGPS  =  0.00D+00  THRKEX  =  0.00D+00  THRDIS  =  2.00D-01  THRVAR  =  1.00D-10
 THRLOC  =  1.00D-06  THRGAP  =  1.00D-06  THRLOCT = -1.00D+00  THRGAPT = -1.00D+00  THRORB  =  1.00D-06  THRMLTP =  0.00D+00
 THRCPQCI=  1.00D-10  KEXTA   =  0.00D+00  THRCOARS=  0.00D+00  SYMTOL  =  1.00D-06  GRADTOL =  1.00D-06  THROVL  =  1.00D-08
 THRORTH =  1.00D-08  GRID    =  1.00D-06  GRIDMAX =  1.00D-03  DTMAX   =  0.00D+00  THROCCDE=  1.00D-01  THROCCDE=  1.00D-01



 ZUNIT=ANG
 

Geometry recognized as XYZ


 Variable memory set to  512000000 words,  buffer space   230000 words

 SETTING BASIS          =    USERDEF


 Recomputing integrals since basis changed


 Using spherical harmonics



 PROGRAM * SEWARD (Integral evaluation for generally contracted gaussian basis sets)     Author: Roland Lindh, 1990

 Geometry written to block  1 of record 700

 Orientation using atomic masses  
 Molecule type: Atom
 Symmetry elements: X,Y,Z
 Rotational constants:       0.0000000      0.0000000      0.0000000 GHz  (calculated with average atomic masses)

 Point group  D2h 



 ATOMIC COORDINATES

 NR  ATOM    CHARGE       X              Y              Z

   1  S       6.00    0.000000000    0.000000000    0.000000000


          S   CORE POTENTIAL

          d POTENTIAL

 POWERS             1              3              2
 EXPONENTIALS   6.151144       11.56157       5.390961    
 COEFFICIENTS   6.000000       36.90686      -19.81953    

          s - d POTENTIAL

 POWERS             2              2
 EXPONENTIALS   16.11769       3.608629    
 COEFFICIENTS   15.92575       38.51590    

          p - d POTENTIAL

 POWERS             2              2
 EXPONENTIALS   6.228956       2.978074    
 COEFFICIENTS   8.062221       18.73753    


 BASIS DATA

   Nr Sym  Nuc  Type         Exponents   Contraction coefficients

    1.1 Ag    1  1s         100.482862    -0.001310
                             46.400877     0.004396
                             21.426951    -0.006724
                              9.894516     0.005578
                              4.569080     0.035232
                              2.109905    -0.317381
                              0.974310    -0.014337
                              0.449916     0.535508
                              0.207762     0.505540
                              0.095940     0.152493
    2.1 Ag    1  1s           0.860183     1.000000
    3.1 Ag    1  1s           0.364382     1.000000
    4.1 Ag    1  1s           0.154356     1.000000
    5.1 Ag    1  1s           0.065386     1.000000
    6.1 Ag    1  3d0          2.679160     1.000000
    7.1 Ag    1  3d2+         2.679160     1.000000
    8.1 Ag    1  3d0          1.109135     1.000000
    9.1 Ag    1  3d2+         1.109135     1.000000
   10.1 Ag    1  3d0          0.459166     1.000000
   11.1 Ag    1  3d2+         0.459166     1.000000
   12.1 Ag    1  3d0          0.190088     1.000000
   13.1 Ag    1  3d2+         0.190088     1.000000
   14.1 Ag    1  5g0          1.393016     1.000000
   15.1 Ag    1  5g4+         1.393016     1.000000
   16.1 Ag    1  5g2+         1.393016     1.000000
   17.1 Ag    1  5g0          0.495851     1.000000
   18.1 Ag    1  5g4+         0.495851     1.000000
   19.1 Ag    1  5g2+         0.495851     1.000000
    1.2 B3u   1  2px         43.920200    -0.000358
                             21.015144     0.001542
                             10.055425    -0.007853
                              4.811367     0.011600
                              2.302165    -0.073557
                              1.101551     0.106140
                              0.527075     0.325738
                              0.252197     0.409301
                              0.120673     0.263709
                              0.057740     0.066722
    2.2 B3u   1  2px          1.235487     1.000000
    3.2 B3u   1  2px          0.496252     1.000000
    4.2 B3u   1  2px          0.199327     1.000000
    5.2 B3u   1  2px          0.080063     1.000000
    6.2 B3u   1  4f1+         1.277358     1.000000
    7.2 B3u   1  4f3+         1.277358     1.000000
    8.2 B3u   1  4f1+         0.606370     1.000000
    9.2 B3u   1  4f3+         0.606370     1.000000
   10.2 B3u   1  4f1+         0.287848     1.000000
   11.2 B3u   1  4f3+         0.287848     1.000000
    1.3 B2u   1  2py         43.920200    -0.000358
                             21.015144     0.001542
                             10.055425    -0.007853
                              4.811367     0.011600
                              2.302165    -0.073557
                              1.101551     0.106140
                              0.527075     0.325738
                              0.252197     0.409301
                              0.120673     0.263709
                              0.057740     0.066722
    2.3 B2u   1  2py          1.235487     1.000000
    3.3 B2u   1  2py          0.496252     1.000000
    4.3 B2u   1  2py          0.199327     1.000000
    5.3 B2u   1  2py          0.080063     1.000000
    6.3 B2u   1  4f1-         1.277358     1.000000
    7.3 B2u   1  4f3-         1.277358     1.000000
    8.3 B2u   1  4f1-         0.606370     1.000000
    9.3 B2u   1  4f3-         0.606370     1.000000
   10.3 B2u   1  4f1-         0.287848     1.000000
   11.3 B2u   1  4f3-         0.287848     1.000000
    1.4 B1g   1  3d2-         2.679160     1.000000
    2.4 B1g   1  3d2-         1.109135     1.000000
    3.4 B1g   1  3d2-         0.459166     1.000000
    4.4 B1g   1  3d2-         0.190088     1.000000
    5.4 B1g   1  5g2-         1.393016     1.000000
    6.4 B1g   1  5g4-         1.393016     1.000000
    7.4 B1g   1  5g2-         0.495851     1.000000
    8.4 B1g   1  5g4-         0.495851     1.000000
    1.5 B1u   1  2pz         43.920200    -0.000358
                             21.015144     0.001542
                             10.055425    -0.007853
                              4.811367     0.011600
                              2.302165    -0.073557
                              1.101551     0.106140
                              0.527075     0.325738
                              0.252197     0.409301
                              0.120673     0.263709
                              0.057740     0.066722
    2.5 B1u   1  2pz          1.235487     1.000000
    3.5 B1u   1  2pz          0.496252     1.000000
    4.5 B1u   1  2pz          0.199327     1.000000
    5.5 B1u   1  2pz          0.080063     1.000000
    6.5 B1u   1  4f0          1.277358     1.000000
    7.5 B1u   1  4f2+         1.277358     1.000000
    8.5 B1u   1  4f0          0.606370     1.000000
    9.5 B1u   1  4f2+         0.606370     1.000000
   10.5 B1u   1  4f0          0.287848     1.000000
   11.5 B1u   1  4f2+         0.287848     1.000000
    1.6 B2g   1  3d1+         2.679160     1.000000
    2.6 B2g   1  3d1+         1.109135     1.000000
    3.6 B2g   1  3d1+         0.459166     1.000000
    4.6 B2g   1  3d1+         0.190088     1.000000
    5.6 B2g   1  5g1+         1.393016     1.000000
    6.6 B2g   1  5g3+         1.393016     1.000000
    7.6 B2g   1  5g1+         0.495851     1.000000
    8.6 B2g   1  5g3+         0.495851     1.000000
    1.7 B3g   1  3d1-         2.679160     1.000000
    2.7 B3g   1  3d1-         1.109135     1.000000
    3.7 B3g   1  3d1-         0.459166     1.000000
    4.7 B3g   1  3d1-         0.190088     1.000000
    5.7 B3g   1  5g1-         1.393016     1.000000
    6.7 B3g   1  5g3-         1.393016     1.000000
    7.7 B3g   1  5g1-         0.495851     1.000000
    8.7 B3g   1  5g3-         0.495851     1.000000
    1.8 Au    1  4f2-         1.277358     1.000000
    2.8 Au    1  4f2-         0.606370     1.000000
    3.8 Au    1  4f2-         0.287848     1.000000

 NUCLEAR CHARGE:                    6
 NUMBER OF PRIMITIVE AOS:         140
 NUMBER OF SYMMETRY AOS:          115
 NUMBER OF CONTRACTIONS:           79   (  19Ag  +  11B3u +  11B2u +   8B1g +  11B1u +   8B2g +   8B3g +   3Au  )
 NUMBER OF CORE ORBITALS:           0   (   0Ag  +   0B3u +   0B2u +   0B1g +   0B1u +   0B2g +   0B3g +   0Au  )
 NUMBER OF VALENCE ORBITALS:        4   (   1Ag  +   1B3u +   1B2u +   0B1g +   1B1u +   0B2g +   0B3g +   0Au  )


 NUCLEAR REPULSION ENERGY    0.00000000

 EXTRA SYMMETRY OF AOS IN SYMMETRY 1:   1 1 1 1 1 2 3 2 3 2   3 2 3 4 5 6 4 5 6
 EXTRA SYMMETRY OF AOS IN SYMMETRY 2:   1 1 1 1 1 2 3 2 3 2   3
 EXTRA SYMMETRY OF AOS IN SYMMETRY 3:   1 1 1 1 1 2 3 2 3 2   3
 EXTRA SYMMETRY OF AOS IN SYMMETRY 4:   1 1 1 1 2 3 2 3
 EXTRA SYMMETRY OF AOS IN SYMMETRY 5:   1 1 1 1 1 2 3 2 3 2   3
 EXTRA SYMMETRY OF AOS IN SYMMETRY 6:   1 1 1 1 2 3 2 3
 EXTRA SYMMETRY OF AOS IN SYMMETRY 7:   1 1 1 1 2 3 2 3

 Eigenvalues of metric

         1 0.255E-02 0.177E-01 0.696E-01 0.696E-01 0.175E+00 0.339E+00 0.339E+00 0.505E+00
         2 0.341E-03 0.423E-01 0.104E+00 0.104E+00 0.267E+00 0.683E+00 0.683E+00 0.103E+01
         3 0.341E-03 0.423E-01 0.104E+00 0.104E+00 0.267E+00 0.683E+00 0.683E+00 0.103E+01
         4 0.696E-01 0.339E+00 0.505E+00 0.505E+00 0.112E+01 0.150E+01 0.150E+01 0.247E+01
         5 0.341E-03 0.423E-01 0.104E+00 0.104E+00 0.267E+00 0.683E+00 0.683E+00 0.103E+01
         6 0.696E-01 0.339E+00 0.505E+00 0.505E+00 0.112E+01 0.150E+01 0.150E+01 0.247E+01
         7 0.696E-01 0.339E+00 0.505E+00 0.505E+00 0.112E+01 0.150E+01 0.150E+01 0.247E+01
         8 0.104E+00 0.683E+00 0.221E+01


 Contracted 2-electron integrals neglected if value below      1.0D-12
 AO integral compression algorithm  1   Integral accuracy      1.0D-12

     7.078 MB (compressed) written to integral file ( 70.4%)


 NUMBER OF SORTED TWO-ELECTRON INTEGRALS:     665704.     BUFFER LENGTH:  32768
 NUMBER OF SEGMENTS:   1  SEGMENT LENGTH:     665704      RECORD LENGTH: 524288

 Memory used in sort:       1.22 MW

 SORT1 READ     1222209. AND WROTE      500866. INTEGRALS IN      2 RECORDS. CPU TIME:     0.03 SEC, REAL TIME:     0.06 SEC
 SORT2 READ      500866. AND WROTE      665704. INTEGRALS IN     27 RECORDS. CPU TIME:     0.06 SEC, REAL TIME:     0.13 SEC

 FILE SIZES:   FILE 1:    26.3 MBYTE,  FILE 4:     8.4 MBYTE,   TOTAL:     34.7 MBYTE

 OPERATOR DM      FOR CENTER  0  COORDINATES:    0.000000    0.000000    0.000000
 OPERATOR EKIN    FOR CENTER  0  COORDINATES:    0.000000    0.000000    0.000000
 OPERATOR POT     FOR CENTER  0  COORDINATES:    0.000000    0.000000    0.000000


 **********************************************************************************************************************************
 DATASETS  * FILE   NREC   LENGTH (MB)   RECORD NAMES
              1      20       22.94       500      610      700      900      950      970     1000      129      960     1100   
                                          VAR    BASINP    GEOM    SYMINP    ZMAT    AOBASIS   BASIS     P2S    ABASIS      S 
                                         1400     1410     1420     1200     1210     1080     1600     1650     1300     1700   
                                         EKIN       V       ECP      H0       H01     AOSYM     SMH    MOLCAS    ERIS     OPER   

 PROGRAMS   *        TOTAL       INT
 CPU TIMES  *         0.77      0.63
 REAL TIME  *         2.20 SEC
 DISK USED  *        35.02 MB      
 **********************************************************************************************************************************


 PROGRAM * RHF-SCF (OPEN SHELL)       Authors: W. Meyer, H.-J. Werner


 NUMBER OF ELECTRONS:       4+    2-    SPACE SYMMETRY=7    SPIN SYMMETRY: Triplet 
 CONVERGENCE THRESHOLDS:    1.00E-05 (Density)    1.00E-07 (Energy)
 MAX. NUMBER OF ITERATIONS:       60
 INTERPOLATION TYPE:            DIIS
 INTERPOLATION STEPS:              2 (START)      1 (STEP)
 LEVEL SHIFTS:                 -0.60 (CLOSED) -0.30 (OPEN) 


 Singly occupied orbitals:      1.3       1.5

   Atom=S  basis=ECP10MWB_GUESS    lmin=0  lmax=1

 Orbital guess generated from atomic densities. Full valence occupancy:    1   1   1   0   1   0   0   0


 Molecular orbital dump at record        4202.2

 ITERATION    DDIFF          GRAD             ENERGY        2-EL.EN.            DIPOLE MOMENTS         DIIS   ORB.
    1      0.000D+00      0.000D+00        -9.91193400     12.499539    0.00000    0.00000    0.00000    0    start
    2      0.000D+00      0.752D-02        -9.91881145     12.701275    0.00000    0.00000    0.00000    1    diag,B
    3      0.114D-01      0.226D-02        -9.91986130     12.774094    0.00000    0.00000    0.00000    2    diag,B
    4      0.298D-02      0.803D-03        -9.91999986     12.792546    0.00000    0.00000    0.00000    3    diag,B
    5      0.195D-02      0.151D-03        -9.92000358     12.793602    0.00000    0.00000    0.00000    4    diag,B
    6      0.486D-03      0.255D-04        -9.92000370     12.793468    0.00000    0.00000    0.00000    5    diag,B
    7      0.454D-04      0.992D-05        -9.92000372     12.793269    0.00000    0.00000    0.00000    6    fixocc
    8      0.346D-04      0.262D-05        -9.92000372     12.793266    0.00000    0.00000    0.00000    7    diag,B
    9      0.814D-05      0.720D-06        -9.92000372     12.793263    0.00000    0.00000    0.00000    0    orth

 Final alpha occupancy:   1   1   1   0   1   0   0   0
 Final beta  occupancy:   1   1   0   0   0   0   0   0

 !RHF STATE 1.7 Energy                 -9.920003718458
 Nuclear energy                         0.00000000
 One-electron energy                  -16.31663503
 Two-electron energy                    6.39663131
 Virial quotient                       -2.68112081
 !RHF STATE 1.7 Dipole moment           0.00000000     0.00000000     0.00000000
 Dipole moment /Debye                   0.00000000     0.00000000     0.00000000
 

 !RHF expec          <1.7|EKIN|1.7>     3.699946560682
 
 !RHF expec           <1.7|POT|1.7>    -3.636398715558

 ELECTRON ORBITALS
 =================


   Orb  Occ    Energy  Couls-En    Coefficients

                                   1 1s      1 1s      1 1s      1 1s      1 1s      1 3d0     1 3d2+    1 3d0     1 3d2+    1 3d0  
                                   1 3d2+    1 3d0     1 3d2+    1 5g0     1 5g4+    1 5g2+    1 5g0     1 5g4+    1 5g2+ 

   1.1   2    -0.8838   -3.9815  0.989253 -0.002317  0.007529  0.006022 -0.000759 -0.000257  0.000446 -0.000455  0.000788  0.000384
                                -0.000665 -0.003369  0.005835  0.000002  0.000003 -0.000002 -0.000009 -0.000018  0.000014

                                   1 2px     1 2px     1 2px     1 2px     1 2px     1 4f1+    1 4f3+    1 4f1+    1 4f3+    1 4f1+ 
                                   1 4f3+ 

   1.2   2    -0.3961   -2.9081  1.042416  0.000950 -0.033187 -0.030206  0.021633  0.000861 -0.001112  0.001762 -0.002275  0.004248
                                -0.005484

                                   1 2py     1 2py     1 2py     1 2py     1 2py     1 4f1-    1 4f3-    1 4f1-    1 4f3-    1 4f1- 
                                   1 4f3- 

   1.3   +    -0.4818   -3.0304  1.068998 -0.003681 -0.016585 -0.022976 -0.041459  0.000630 -0.002439  0.001507 -0.005837  0.002812
                                -0.010889

                                   1 2pz     1 2pz     1 2pz     1 2pz     1 2pz     1 4f0     1 4f2+    1 4f0     1 4f2+    1 4f0  
                                   1 4f2+ 

   1.5   +    -0.4818   -3.0304  1.068998 -0.003681 -0.016585 -0.022976 -0.041459  0.001542 -0.001991  0.003692 -0.004766  0.006887
                                -0.008891

 HOMO      1.2    -0.396059 =     -10.7773eV
 LUMO      2.1     0.129779 =       3.5315eV
 LUMO-HOMO         0.525838 =      14.3088eV


 **********************************************************************************************************************************
 DATASETS  * FILE   NREC   LENGTH (MB)   RECORD NAMES
              1      20       22.94       500      610      700      900      950      970     1000      129      960     1100   
                                          VAR    BASINP    GEOM    SYMINP    ZMAT    AOBASIS   BASIS     P2S    ABASIS      S 
                                         1400     1410     1420     1200     1210     1080     1600     1650     1300     1700   
                                         EKIN       V       ECP      H0       H01     AOSYM     SMH    MOLCAS    ERIS     OPER   

              2       4        2.78       700     1000      520     4202   
                                         GEOM     BASIS   MCVARS     RHF  

 PROGRAMS   *        TOTAL       RHF       INT
 CPU TIMES  *         0.85      0.08      0.63
 REAL TIME  *         2.43 SEC
 DISK USED  *        35.02 MB      
 **********************************************************************************************************************************


 PROGRAM * MULTI (Direct Multiconfiguration SCF)       Authors: P.J. Knowles, H.-J. Werner (1984)     S.T. Elbert (1988)


 Number of closed-shell orbitals:   1 (   1   0   0   0   0   0   0   0 )
 Number of active  orbitals:        3 (   0   1   1   0   1   0   0   0 )
 Number of external orbitals:      75 (  18  10  10   8  10   8   8   3 )

 State symmetry 1

 Number of electrons:     4    Spin symmetry=Triplet   Space symmetry=4
 Number of states:        1
 Number of CSFs:          1   (1 determinants, 3 intermediate states)

 State symmetry 2

 Number of electrons:     4    Spin symmetry=Triplet   Space symmetry=6
 Number of states:        1
 Number of CSFs:          1   (1 determinants, 3 intermediate states)

 State symmetry 3

 Number of electrons:     4    Spin symmetry=Triplet   Space symmetry=7
 Number of states:        1
 Number of CSFs:          1   (1 determinants, 3 intermediate states)

 Iteration controls:
             1  2  3  4  5  6  7  8  9 10 11 12 13 14 15 16 17 18 19 20 21 22 23 24 25 26 27 28 29 30 31 32 33 34 35 36 37 38 39
 DIAGCI      T  T  T  T  T  T  T  T  T  T  T  T  T  T  T  T  T  T  T  T  T  T  T  T  T  T  T  T  T  T  T  T  T  T  T  T  T  T  T
 WERNER      T  T  T  T  T  T  T  T  T  T  T  T  T  T  T  T  T  T  T  T  T  T  T  T  T  T  T  T  T  T  T  T  T  T  T  T  T  T  T
 INTERNAL    F  T  T  T  T  T  T  T  T  T  T  T  T  T  T  T  T  T  T  T  T  T  T  T  T  T  T  T  T  T  T  T  T  T  T  T  T  T  T

 Molecular orbitals read from record     4202.2  Type=RHF/CANONICAL (state 1.7)
 *** IN SYMMETRY 1 ORBITAL  1 SYMMETRY CONTAMINATION OF 0.120D-01 HAS BEEN REMOVED

 EXTRA SYMMETRY OF MOS IN SYMMETRY 1:   1 1 2 3 1 2 3 4 5 6   1 2 3 4 5 6 2 3 1
 *** IN SYMMETRY 2 ORBITAL  1 SYMMETRY CONTAMINATION OF 0.138D-01 HAS BEEN REMOVED
 EXTRA SYMMETRY OF MOS IN SYMMETRY 2:   1 1 2 3 1 2 3 1 2 3   1
 *** IN SYMMETRY 3 ORBITAL  1 SYMMETRY CONTAMINATION OF 0.205D-01 HAS BEEN REMOVED
 EXTRA SYMMETRY OF MOS IN SYMMETRY 3:   1 1 2 3 1 2 3 1 2 3   1
 EXTRA SYMMETRY OF MOS IN SYMMETRY 4:   1 1 2 3 1 2 3 1
 *** IN SYMMETRY 5 ORBITAL  1 SYMMETRY CONTAMINATION OF 0.235D-01 HAS BEEN REMOVED
 EXTRA SYMMETRY OF MOS IN SYMMETRY 5:   1 1 2 3 1 2 3 1 2 3   1
 EXTRA SYMMETRY OF MOS IN SYMMETRY 6:   1 1 3 2 1 3 2 1
 EXTRA SYMMETRY OF MOS IN SYMMETRY 7:   1 1 2 3 1 2 3 1

 Wavefunction dump at record             5202.2

 Convergence thresholds  0.10E-01 (gradient)  0.10E-05 (energy)  0.10E-02 (step length)

 Weight factors for state symmetry  1:    0.33333
 Weight factors for state symmetry  2:    0.33333
 Weight factors for state symmetry  3:    0.33333

 Number of orbital rotations:       48   (     0 Core/Active     18 Core/Virtual   0 Active/Active     30 Active/Virtual)
 Total number of variables:         51


 ITER. MIC  NCI  NEG     ENERGY(VAR)     ENERGY(PROJ)   ENERGY CHANGE     GRAD(0)  GRAD(ORB)   GRAD(CI)     STEP       TIME

   1   22   12    0      -9.91652119      -9.91760521   -0.00108402    0.03094722 0.00000000 0.00000000  0.41D-01      0.02
   2   13   12    0      -9.91760840      -9.91760843   -0.00000003    0.00018637 0.00000000 0.00000000  0.19D-03      0.04
   3   14   12    0      -9.91760843      -9.91760843    0.00000000    0.00000001 0.00000000 0.00000000  0.70D-08      0.05

 ** WVFN ****  CONVERGENCE REACHED, FINAL GRADIENT:  0.32D-13



 Results for state 1.4
 =====================

 !MCSCF STATE 1.4 Energy               -9.917608429401
 Nuclear energy                         0.00000000
 Kinetic energy                         3.69772146
 One electron energy                  -16.31967440
 Two electron energy                    6.40206597
 Virial ratio                           3.68208640

 !MCSCF STATE 1.4 Dipole moment         0.00000000     0.00000000     0.00000000
 Dipole moment /Debye                   0.00000000     0.00000000     0.00000000



 Results for state 1.6
 =====================

 !MCSCF STATE 1.6 Energy               -9.917608429401
 Nuclear energy                         0.00000000
 Kinetic energy                         3.69772146
 One electron energy                  -16.31967440
 Two electron energy                    6.40206597
 Virial ratio                           3.68208640

 !MCSCF STATE 1.6 Dipole moment         0.00000000     0.00000000     0.00000000
 Dipole moment /Debye                   0.00000000     0.00000000     0.00000000



 Results for state 1.7
 =====================

 !MCSCF STATE 1.7 Energy               -9.917608429401
 Nuclear energy                         0.00000000
 Kinetic energy                         3.69772146
 One electron energy                  -16.31967440
 Two electron energy                    6.40206597
 Virial ratio                           3.68208640

 !MCSCF STATE 1.7 Dipole moment         0.00000000     0.00000000     0.00000000
 Dipole moment /Debye                   0.00000000     0.00000000     0.00000000

 State-averaged charge density matrix saved on record  5202.2 (density set 1)

 !MCSCF expec        <1.4|EKIN|1.4>     3.697721456624
 !MCSCF expec        <1.6|EKIN|1.6>     3.697721456624
 !MCSCF expec        <1.7|EKIN|1.7>     3.697721456624

 !MCSCF expec         <1.4|POT|1.4>    -3.636519985710
 !MCSCF expec         <1.6|POT|1.6>    -3.636519985710
 !MCSCF expec         <1.7|POT|1.7>    -3.636519985710


 NATURAL ORBITALS (state averaged)
 =================================

   Orb     Occ        Energy       Coefficients

                                   1 1s      1 1s      1 1s      1 1s      1 1s      1 3d0     1 3d2+    1 3d0     1 3d2+    1 3d0  
                                   1 3d2+    1 3d0     1 3d2+    1 5g0     1 5g4+    1 5g2+    1 5g0     1 5g4+    1 5g2+ 

   1.1  2.00000    -0.883621     0.989259 -0.002221  0.007199  0.006311 -0.000782  0.000000  0.000000  0.000000  0.000000  0.000000
                                 0.000000  0.000000  0.000000  0.000000  0.000000  0.000000  0.000000  0.000000  0.000000

                                   1 2px     1 2px     1 2px     1 2px     1 2px     1 4f1+    1 4f3+    1 4f1+    1 4f3+    1 4f1+ 
                                   1 4f3+ 

   1.2  1.33333    -0.283221     1.056669 -0.001110 -0.026298 -0.025433 -0.010707  0.000000  0.000000  0.000000  0.000000  0.000000
                                 0.000000

                                   1 2py     1 2py     1 2py     1 2py     1 2py     1 4f1-    1 4f3-    1 4f1-    1 4f3-    1 4f1- 
                                   1 4f3- 

   1.3  1.33333    -0.283221     1.056669 -0.001110 -0.026298 -0.025433 -0.010707  0.000000  0.000000  0.000000  0.000000  0.000000
                                 0.000000

                                   1 2pz     1 2pz     1 2pz     1 2pz     1 2pz     1 4f0     1 4f2+    1 4f0     1 4f2+    1 4f0  
                                   1 4f2+ 

   1.5  1.33333    -0.283221     1.056669 -0.001110 -0.026298 -0.025433 -0.010707  0.000000  0.000000  0.000000  0.000000  0.000000
                                 0.000000
 

 EXTRA SYMMETRY OF MOS IN SYMMETRY 1:   1 1 3 2 1 2 3 6 4 5   1 2 3 6 4 5 2 3 1
 EXTRA SYMMETRY OF MOS IN SYMMETRY 5:   1 1 3 2 1 2 3 1 2 3   1
 EXTRA SYMMETRY OF MOS IN SYMMETRY 6:   1 1 2 3 1 2 3 1

 Natural orbital dump (state averaged) at molpro section  5202.2    (Orbital set 2)


 CI vector for state symmetry 1
 ==============================

 a a 2           1.0000000

 TOTAL ENERGIES                        -9.91760843

 CI vector for state symmetry 2
 ==============================

 a 2 a           1.0000000

 TOTAL ENERGIES                        -9.91760843

 CI vector for state symmetry 3
 ==============================

 2 a a           1.0000000

 TOTAL ENERGIES                        -9.91760843



 **********************************************************************************************************************************
 DATASETS  * FILE   NREC   LENGTH (MB)   RECORD NAMES
              1      21       23.06       500      610      700      900      950      970     1000      129      960     1100   
                                          VAR    BASINP    GEOM    SYMINP    ZMAT    AOBASIS   BASIS     P2S    ABASIS      S 
                                         1400     1410     1420     1200     1210     1080     1600     1650     1300     1700   
                                         EKIN       V       ECP      H0       H01     AOSYM     SMH    MOLCAS    ERIS     OPER   
                                         1380   
                                         JKOP   

              2       5        5.31       700     1000      520     4202     5202   
                                         GEOM     BASIS   MCVARS     RHF     MCSCF   

 PROGRAMS   *        TOTAL     MULTI       RHF       INT
 CPU TIMES  *         0.95      0.10      0.08      0.63
 REAL TIME  *         5.18 SEC
 DISK USED  *        37.90 MB      
 **********************************************************************************************************************************


 PROGRAM * RHF-SCF (OPEN SHELL)       Authors: W. Meyer, H.-J. Werner


 NUMBER OF ELECTRONS:       4+    2-    SPACE SYMMETRY=7    SPIN SYMMETRY: Triplet 
 CONVERGENCE THRESHOLDS:    1.00E-05 (Density)    1.00E-07 (Energy)
 MAX. NUMBER OF ITERATIONS:        0
 INTERPOLATION TYPE:            DIIS
 INTERPOLATION STEPS:              2 (START)      1 (STEP)
 LEVEL SHIFTS:                 -0.60 (CLOSED) -0.30 (OPEN) 


 Singly occupied orbitals:      1.3       1.5
 Molecular orbitals read from record     5202.2  Type=MCSCF/NATURAL (state averaged)

 Molecular orbital dump at record        2101.2

 ITERATION    DDIFF          GRAD             ENERGY        2-EL.EN.            DIPOLE MOMENTS         DIIS   ORB.
    1      0.000D+00      0.000D+00        -9.91760843     12.804132    0.00000    0.00000    0.00000    0    start

 Final alpha occupancy:   1   1   1   0   1   0   0   0
 Final beta  occupancy:   1   1   0   0   0   0   0   0

 !RHF STATE 1.7 Energy                 -9.917608429401
 Nuclear energy                         0.00000000
 One-electron energy                  -16.31967440
 Two-electron energy                    6.40206597
 Virial quotient                       -2.68208640
 !RHF STATE 1.7 Dipole moment           0.00000000     0.00000000     0.00000000
 Dipole moment /Debye                   0.00000000     0.00000000     0.00000000
 

 !RHF expec          <1.7|EKIN|1.7>     3.697721456624
 
 !RHF expec           <1.7|POT|1.7>    -3.636519985710

 ELECTRON ORBITALS
 =================


   Orb  Occ    Energy  Couls-En    Coefficients

                                   1 1s      1 1s      1 1s      1 1s      1 1s      1 3d0     1 3d2+    1 3d0     1 3d2+    1 3d0  
                                   1 3d2+    1 3d0     1 3d2+    1 5g0     1 5g4+    1 5g2+    1 5g0     1 5g4+    1 5g2+ 

   1.1   2    -0.8836   -3.9813  0.989259 -0.002221  0.007199  0.006311 -0.000782  0.000000  0.000000  0.000000  0.000000  0.000000
                                 0.000000  0.000000  0.000000  0.000000  0.000000  0.000000  0.000000  0.000000  0.000000

                                   1 2px     1 2px     1 2px     1 2px     1 2px     1 4f1+    1 4f3+    1 4f1+    1 4f3+    1 4f1+ 
                                   1 4f3+ 

   1.2   2    -0.2832   -2.8143  1.056669 -0.001110 -0.026298 -0.025433 -0.010707  0.000000  0.000000  0.000000  0.000000  0.000000
                                 0.000000

                                   1 2py     1 2py     1 2py     1 2py     1 2py     1 4f1-    1 4f3-    1 4f1-    1 4f3-    1 4f1- 
                                   1 4f3- 

   1.3   +    -0.2832   -2.8143  1.056669 -0.001110 -0.026298 -0.025433 -0.010707  0.000000  0.000000  0.000000  0.000000  0.000000
                                 0.000000

                                   1 2pz     1 2pz     1 2pz     1 2pz     1 2pz     1 4f0     1 4f2+    1 4f0     1 4f2+    1 4f0  
                                   1 4f2+ 

   1.5   +    -0.2832   -2.8143  1.056669 -0.001110 -0.026298 -0.025433 -0.010707  0.000000  0.000000  0.000000  0.000000  0.000000
                                 0.000000

 HOMO      1.2    -0.283221 =      -7.7068eV
 LUMO      2.1     0.137419 =       3.7394eV
 LUMO-HOMO         0.420639 =      11.4462eV


 **********************************************************************************************************************************
 DATASETS  * FILE   NREC   LENGTH (MB)   RECORD NAMES
              1      21       23.06       500      610      700      900      950      970     1000      129      960     1100   
                                          VAR    BASINP    GEOM    SYMINP    ZMAT    AOBASIS   BASIS     P2S    ABASIS      S 
                                         1400     1410     1420     1200     1210     1080     1600     1650     1300     1700   
                                         EKIN       V       ECP      H0       H01     AOSYM     SMH    MOLCAS    ERIS     OPER   
                                         1380   
                                         JKOP   

              2       6        7.84       700     1000      520     4202     5202     2101   
                                         GEOM     BASIS   MCVARS     RHF     MCSCF     RHF  

 PROGRAMS   *        TOTAL       RHF     MULTI       RHF       INT
 CPU TIMES  *         0.99      0.04      0.10      0.08      0.63
 REAL TIME  *         5.33 SEC
 DISK USED  *        37.90 MB      
 **********************************************************************************************************************************
 SETTING SCF(I)         =        -9.91760843  AU                              
 SETTING _CC_NORM_MAX   =         2.00000000                                  


 PROGRAM * CCSD (Unrestricted open-shell coupled cluster)     Authors: C. Hampel, H.-J. Werner, 1991, M. Deegan, P.J. Knowles, 1992


 Convergence thresholds:  THRVAR = 1.00D-08  THRDEN = 1.00D-06

 CCSD(T)     terms to be evaluated (factor= 1.000)


 Number of closed-shell orbitals:   2 (   1   1   0   0   0   0   0   0 )
 Number of active  orbitals:        2 (   0   0   1   0   1   0   0   0 )
 Number of external orbitals:      75 (  18  10  10   8  10   8   8   3 )

 Memory could be reduced to 0.94 Mwords without degradation in triples

 Number of N-1 electron functions:               6
 Number of N-2 electron functions:              15
 Number of singly external CSFs:                78
 Number of doubly external CSFs:              8819
 Total number of CSFs:                        8897

 Molecular orbitals read from record     2101.2  Type=RHF/CANONICAL (state 1.7)

 Integral transformation finished. Total CPU:   0.00 sec, npass=  1  Memory used:   0.17 MW

 Starting RMP2 calculation

 ITER.      SQ.NORM     CORR.ENERGY   TOTAL ENERGY   ENERGY CHANGE        DEN1      VAR(S)    VAR(P)  DIIS     TIME
   1      1.05954927    -0.14573795   -10.06334638    -0.14573795    -0.00089798  0.45D-04  0.39D-03  1  1     0.01
   2      1.06064569    -0.14673504   -10.06434347    -0.00099708    -0.00000149  0.23D-06  0.53D-06  2  2     0.01
   3      1.06067003    -0.14674652   -10.06435495    -0.00001149    -0.00000000  0.19D-08  0.99D-09  3  3     0.02
   4      1.06067072    -0.14674676   -10.06435519    -0.00000024    -0.00000000  0.11D-10  0.22D-11  4  4     0.02

 Norm of t1 vector:      0.06327203      S-energy:    -0.00539438      T1 diagnostic:  0.01114041
 Norm of t2 vector:      0.23804909      P-energy:    -0.14135238
                                         Alpha-Beta:  -0.11131688
                                         Alpha-Alpha: -0.02625780
                                         Beta-Beta:   -0.00377770

 Spin contamination <S**2-Sz**2-Sz>     0.00571497
  Reference energy                     -9.917608429401
  RHF-RMP2 correlation energy          -0.146746764180
 !RHF-RMP2 energy                     -10.064355193581

 Starting UCCSD calculation

 ITER.      SQ.NORM     CORR.ENERGY   TOTAL ENERGY   ENERGY CHANGE        DEN1      VAR(S)    VAR(P)  DIIS     TIME
   1      1.07287783    -0.15844232   -10.07605075    -0.15844232    -0.00626791  0.43D-03  0.23D-02  1  1     0.04
   2      1.08242407    -0.16573014   -10.08333857    -0.00728782    -0.00020191  0.18D-04  0.72D-04  2  2     0.06
   3      1.08393439    -0.16637763   -10.08398606    -0.00064749    -0.00001325  0.14D-05  0.54D-05  3  3     0.08
   4      1.08433932    -0.16651999   -10.08412842    -0.00014236    -0.00000091  0.64D-07  0.41D-06  4  4     0.09
   5      1.08441188    -0.16653850   -10.08414693    -0.00001851    -0.00000009  0.27D-08  0.50D-07  5  5     0.11
   6      1.08441825    -0.16653700   -10.08414543     0.00000149    -0.00000001  0.67D-09  0.71D-08  6  6     0.12
   7      1.08442128    -0.16653757   -10.08414600    -0.00000057    -0.00000000  0.14D-09  0.79D-09  6  1     0.14

 Norm of t1 vector:      0.07819656      S-energy:    -0.00616965      T1 diagnostic:  0.01636500
                                                                       D1 diagnostic:  0.02444928
 Norm of t2 vector:      0.27983312      P-energy:    -0.16036792
                                         Alpha-Beta:  -0.13000568
                                         Alpha-Alpha: -0.02683678
                                         Beta-Beta:   -0.00352545

 Doubles amplitudes (print threshold =  0.500E-01):

         I         J         SYM. A    SYM. B    A         B      T(IJ, AB) [Alpha-Beta]

         4         1         1         5         3         1     -0.05487958

 Spin contamination <S**2-Sz**2-Sz>     0.00348623

 Memory could be reduced to 0.95 Mwords without degradation in triples
 

 RESULTS
 =======

  Reference energy                     -9.917608429401
  UCCSD singles energy                 -0.006169649896
  UCCSD pair energy                    -0.160367919432
  UCCSD correlation energy             -0.166537569328
  Triples (T) contribution             -0.006794738902
  Total correlation energy             -0.173332308230
 
  RHF-UCCSD energy                    -10.084145998728
  RHF-UCCSD[T] energy                 -10.090910923751
  RHF-UCCSD-T energy                  -10.090924307195
 !RHF-UCCSD(T) energy                 -10.090940737630

 Program statistics:

 Available memory in ccsd:               511999732
 Min. memory needed in ccsd:                 50442
 Max. memory used in ccsd:                   58484
 Max. memory used in cckext:                 76681 ( 7 integral passes)
 Max. memory used in cckint:                165612 ( 1 integral passes)



 **********************************************************************************************************************************
 DATASETS  * FILE   NREC   LENGTH (MB)   RECORD NAMES
              1      21       23.06       500      610      700      900      950      970     1000      129      960     1100   
                                          VAR    BASINP    GEOM    SYMINP    ZMAT    AOBASIS   BASIS     P2S    ABASIS      S 
                                         1400     1410     1420     1200     1210     1080     1600     1650     1300     1700   
                                         EKIN       V       ECP      H0       H01     AOSYM     SMH    MOLCAS    ERIS     OPER   
                                         1380   
                                         JKOP   

              2       6        7.84       700     1000      520     4202     5202     2101   
                                         GEOM     BASIS   MCVARS     RHF     MCSCF     RHF  

 PROGRAMS   *        TOTAL  UCCSD(T)       RHF     MULTI       RHF       INT
 CPU TIMES  *         1.24      0.25      0.04      0.10      0.08      0.63
 REAL TIME  *         6.59 SEC
 DISK USED  *        38.12 MB      
 **********************************************************************************************************************************
 SETTING POSTHF(I)      =       -10.09094074  AU                              
                                                                                                                                                                                                                                                                

       SCF            POSTHF       EKIN          POT
    -9.91760843   -10.09094074   3.69772146   -3.63651999
                                                  

 UCCSD(T)/USERDEF energy=    -10.090940737630

        UCCSD(T)        RHF-SCF         MULTI           RHF-SCF 
    -10.09094074     -9.91760843     -9.91760843     -9.92000372
 **********************************************************************************************************************************
 Variable memory released
