
 Primary working directories    : /global/cscratch1/sd/aannabe
 Secondary working directories  : /global/cscratch1/sd/aannabe
 Wavefunction directory         : /global/homes/a/aannabe/wfu/
 Main file repository           : /global/cscratch1/sd/aannabe/

 SHA1      : 2873118e99aab1bc19f5b6fc1784693c06d15c95
 NAME      : 2015.1.8
 ARCHNAME  : linux/x86_64
 FC        : /opt/cray/pe/craype/2.5.5/bin/ftn
 BLASLIB   : -Wl,-_start-group /opt/intel/compilers_and_libraries_2016.3.210/linux/mkl/lib/intel64/libmkl_intel_ilp64.a /opt/intel/compilers_and_libraries_2016.3.210/linux/mkl/lib/intel64/libmkl_intel_thread.a /opt/intel/compilers_and_libraries_2016.3.210/linux/mkl/lib/intel64/libmkl_core.a -Wl,-_end-group
 id        : lbl

 Nodes     nprocs
 nid00474     1

 Using customized tuning parameters: mindgm=8; mindgv=16; mindgc=4; mindgr=1; noblas=0; minvec=7
 default implementation of scratch files=df  

 ***,S
 memory,512,m
 gthresh,twoint=1.e-12
 
 gprint,basis,orbitals
 gexpec,ekin,pot
 
 angstrom
 geometry={
 1                                                                               ! Number of atoms
 S 0.0 0.0 0.0
 }
 
 basis={
 Including file /global/homes/a/aannabe/docs/accurate/ccECP_Kh/pps/S.pp
 Including file /global/homes/a/aannabe/docs/accurate/ccECP_Kh/basis/aug-cc-pVnZ/S_6z.basis
 }
 
 {rhf
  start,atden
  wf,6,7,2
  occ,1,1,1,0,1,0,0,0
  open,1.3,1.5
  orbital,4202.2
 }
 {multi
  maxiter,40
  start,4202.2
  occ,1,1,1,0,1,0,0,0
  closed,1,0,0,0,0,0,0
  wf,6,4,2;state,1
  wf,6,6,2;state,1
  wf,6,7,2;state,1
  natorb,ci,print
  orbital,5202.2
 }
 {rhf,nitord=1,maxit=0
  start,5202.2
  wf,6,7,2
  occ,1,1,1,0,1,0,0,0
  open,1.3,1.5
 }
 
 scf(i)=energy
 
 _CC_NORM_MAX=2.0
 {uccsd(t)
 maxit,100
 core
 }
 posthf(i)=energy
 
 table,scf,posthf,ekin,pot
 save,6.csv,new
 
 

 Variables initialized (889), CPU time= 0.00 sec
 Commands  initialized (702), CPU time= 0.01 sec, 572 directives.
 Default parameters read. Elapsed time= 0.16 sec

 Checking input...
 Passed
1


                                         ***  PROGRAM SYSTEM MOLPRO  ***
                                       Copyright, TTI GmbH Stuttgart, 2015
                                    Version 2015.1 linked Sep  7 2016 23:09:38


 **********************************************************************************************************************************
 LABEL *   S                                                                             
  64 bit serial version                                                                  DATE: 30-Oct-18          TIME: 12:14:35  
 **********************************************************************************************************************************

 SHA1:             2873118e99aab1bc19f5b6fc1784693c06d15c95
 **********************************************************************************************************************************

 THRESHOLDS:

 ZERO    =  1.00D-12  ONEINT  =  1.00D-12  TWOINT  =  1.00D-12  PREFAC  =  1.00D-14  LOCALI  =  1.00D-09  EORDER  =  1.00D-04
 ENERGY  =  0.00D+00  ETEST   =  0.00D+00  EDENS   =  0.00D+00  THRDEDEF=  1.00D-06  GRADIENT=  1.00D-02  STEP    =  1.00D-03
 ORBITAL =  1.00D-05  CIVEC   =  1.00D-05  COEFF   =  1.00D-04  PRINTCI =  5.00D-02  PUNCHCI =  9.90D+01  OPTGRAD =  3.00D-04
 OPTENERG=  1.00D-06  OPTSTEP =  3.00D-04  THRGRAD =  1.00D-10  COMPRESS=  1.00D-11  VARMIN  =  1.00D-07  VARMAX  =  1.00D-03
 THRDOUB =  0.00D+00  THRDIV  =  1.00D-05  THRRED  =  1.00D-07  THRPSP  =  1.00D+00  THRDC   =  1.00D-10  THRCS   =  1.00D-10
 THRNRM  =  1.00D-08  THREQ   =  0.00D+00  THRDE   =  1.00D+00  THRREF  =  1.00D-05  SPARFAC =  1.00D+00  THRDLP  =  1.00D-07
 THRDIA  =  1.00D-10  THRDLS  =  1.00D-07  THRGPS  =  0.00D+00  THRKEX  =  0.00D+00  THRDIS  =  2.00D-01  THRVAR  =  1.00D-10
 THRLOC  =  1.00D-06  THRGAP  =  1.00D-06  THRLOCT = -1.00D+00  THRGAPT = -1.00D+00  THRORB  =  1.00D-06  THRMLTP =  0.00D+00
 THRCPQCI=  1.00D-10  KEXTA   =  0.00D+00  THRCOARS=  0.00D+00  SYMTOL  =  1.00D-06  GRADTOL =  1.00D-06  THROVL  =  1.00D-08
 THRORTH =  1.00D-08  GRID    =  1.00D-06  GRIDMAX =  1.00D-03  DTMAX   =  0.00D+00  THROCCDE=  1.00D-01  THROCCDE=  1.00D-01



 ZUNIT=ANG
 

Geometry recognized as XYZ


 Variable memory set to  512000000 words,  buffer space   230000 words

 SETTING BASIS          =    USERDEF


 Recomputing integrals since basis changed


 Using spherical harmonics



 PROGRAM * SEWARD (Integral evaluation for generally contracted gaussian basis sets)     Author: Roland Lindh, 1990

 Geometry written to block  1 of record 700

 Orientation using atomic masses  
 Molecule type: Atom
 Symmetry elements: X,Y,Z
 Rotational constants:       0.0000000      0.0000000      0.0000000 GHz  (calculated with average atomic masses)

 Point group  D2h 



 ATOMIC COORDINATES

 NR  ATOM    CHARGE       X              Y              Z

   1  S       6.00    0.000000000    0.000000000    0.000000000


          S   CORE POTENTIAL

          d POTENTIAL

 POWERS             1              3              2              2
 EXPONENTIALS   9.361334       15.29388       6.017554       12.15756    
 COEFFICIENTS   6.000000       56.16801      -21.04657       16.40694    

          s - d POTENTIAL

 POWERS             2              2
 EXPONENTIALS   15.70411       3.646870    
 COEFFICIENTS   12.82876       39.35652    

          p - d POTENTIAL

 POWERS             2              2
 EXPONENTIALS   2.951925       3.242442    
 COEFFICIENTS   6.616078       16.06061    


 BASIS DATA

   Nr Sym  Nuc  Type         Exponents   Contraction coefficients

    1.1 Ag    1  1s         100.482862    -0.001310
                             46.400877     0.004396
                             21.426951    -0.006724
                              9.894516     0.005578
                              4.569080     0.035232
                              2.109905    -0.317381
                              0.974310    -0.014337
                              0.449916     0.535508
                              0.207762     0.505540
                              0.095940     0.152493
    2.1 Ag    1  1s           0.059804     1.000000
    3.1 Ag    1  1s           0.110309     1.000000
    4.1 Ag    1  1s           0.203467     1.000000
    5.1 Ag    1  1s           0.375298     1.000000
    6.1 Ag    1  1s           0.692245     1.000000
    7.1 Ag    1  1s           1.276858     1.000000
    8.1 Ag    1  3d0          0.073492     1.000000
    9.1 Ag    1  3d2+         0.073492     1.000000
   10.1 Ag    1  3d0          0.159223     1.000000
   11.1 Ag    1  3d2+         0.159223     1.000000
   12.1 Ag    1  3d0          0.344962     1.000000
   13.1 Ag    1  3d2+         0.344962     1.000000
   14.1 Ag    1  3d0          0.747373     1.000000
   15.1 Ag    1  3d2+         0.747373     1.000000
   16.1 Ag    1  3d0          1.619209     1.000000
   17.1 Ag    1  3d2+         1.619209     1.000000
   18.1 Ag    1  3d0          3.508073     1.000000
   19.1 Ag    1  3d2+         3.508073     1.000000
   20.1 Ag    1  5g0          0.189560     1.000000
   21.1 Ag    1  5g4+         0.189560     1.000000
   22.1 Ag    1  5g2+         0.189560     1.000000
   23.1 Ag    1  5g0          0.377121     1.000000
   24.1 Ag    1  5g4+         0.377121     1.000000
   25.1 Ag    1  5g2+         0.377121     1.000000
   26.1 Ag    1  5g0          0.750265     1.000000
   27.1 Ag    1  5g4+         0.750265     1.000000
   28.1 Ag    1  5g2+         0.750265     1.000000
   29.1 Ag    1  5g0          1.492616     1.000000
   30.1 Ag    1  5g4+         1.492616     1.000000
   31.1 Ag    1  5g2+         1.492616     1.000000
   32.1 Ag    1  7i6+         0.415043     1.000000
   33.1 Ag    1  7i4+         0.415043     1.000000
   34.1 Ag    1  7i2+         0.415043     1.000000
   35.1 Ag    1  7i0          0.415043     1.000000
   36.1 Ag    1  7i6+         1.037607     1.000000
   37.1 Ag    1  7i4+         1.037607     1.000000
   38.1 Ag    1  7i2+         1.037607     1.000000
   39.1 Ag    1  7i0          1.037607     1.000000
    1.2 B3u   1  2px         43.920200    -0.000358
                             21.015144     0.001542
                             10.055425    -0.007853
                              4.811367     0.011600
                              2.302165    -0.073557
                              1.101551     0.106140
                              0.527075     0.325738
                              0.252197     0.409301
                              0.120673     0.263709
                              0.057740     0.066722
    2.2 B3u   1  2px          0.032465     1.000000
    3.2 B3u   1  2px          0.068647     1.000000
    4.2 B3u   1  2px          0.145154     1.000000
    5.2 B3u   1  2px          0.306929     1.000000
    6.2 B3u   1  2px          0.649001     1.000000
    7.2 B3u   1  2px          1.372313     1.000000
    8.2 B3u   1  4f1+         0.109257     1.000000
    9.2 B3u   1  4f3+         0.109257     1.000000
   10.2 B3u   1  4f1+         0.215011     1.000000
   11.2 B3u   1  4f3+         0.215011     1.000000
   12.2 B3u   1  4f1+         0.423129     1.000000
   13.2 B3u   1  4f3+         0.423129     1.000000
   14.2 B3u   1  4f1+         0.832692     1.000000
   15.2 B3u   1  4f3+         0.832692     1.000000
   16.2 B3u   1  4f1+         1.638688     1.000000
   17.2 B3u   1  4f3+         1.638688     1.000000
   18.2 B3u   1  6h1+         0.293710     1.000000
   19.2 B3u   1  6h3+         0.293710     1.000000
   20.2 B3u   1  6h5+         0.293710     1.000000
   21.2 B3u   1  6h1+         0.614236     1.000000
   22.2 B3u   1  6h3+         0.614236     1.000000
   23.2 B3u   1  6h5+         0.614236     1.000000
   24.2 B3u   1  6h1+         1.284550     1.000000
   25.2 B3u   1  6h3+         1.284550     1.000000
   26.2 B3u   1  6h5+         1.284550     1.000000
    1.3 B2u   1  2py         43.920200    -0.000358
                             21.015144     0.001542
                             10.055425    -0.007853
                              4.811367     0.011600
                              2.302165    -0.073557
                              1.101551     0.106140
                              0.527075     0.325738
                              0.252197     0.409301
                              0.120673     0.263709
                              0.057740     0.066722
    2.3 B2u   1  2py          0.032465     1.000000
    3.3 B2u   1  2py          0.068647     1.000000
    4.3 B2u   1  2py          0.145154     1.000000
    5.3 B2u   1  2py          0.306929     1.000000
    6.3 B2u   1  2py          0.649001     1.000000
    7.3 B2u   1  2py          1.372313     1.000000
    8.3 B2u   1  4f1-         0.109257     1.000000
    9.3 B2u   1  4f3-         0.109257     1.000000
   10.3 B2u   1  4f1-         0.215011     1.000000
   11.3 B2u   1  4f3-         0.215011     1.000000
   12.3 B2u   1  4f1-         0.423129     1.000000
   13.3 B2u   1  4f3-         0.423129     1.000000
   14.3 B2u   1  4f1-         0.832692     1.000000
   15.3 B2u   1  4f3-         0.832692     1.000000
   16.3 B2u   1  4f1-         1.638688     1.000000
   17.3 B2u   1  4f3-         1.638688     1.000000
   18.3 B2u   1  6h1-         0.293710     1.000000
   19.3 B2u   1  6h3-         0.293710     1.000000
   20.3 B2u   1  6h5-         0.293710     1.000000
   21.3 B2u   1  6h1-         0.614236     1.000000
   22.3 B2u   1  6h3-         0.614236     1.000000
   23.3 B2u   1  6h5-         0.614236     1.000000
   24.3 B2u   1  6h1-         1.284550     1.000000
   25.3 B2u   1  6h3-         1.284550     1.000000
   26.3 B2u   1  6h5-         1.284550     1.000000
    1.4 B1g   1  3d2-         0.073492     1.000000
    2.4 B1g   1  3d2-         0.159223     1.000000
    3.4 B1g   1  3d2-         0.344962     1.000000
    4.4 B1g   1  3d2-         0.747373     1.000000
    5.4 B1g   1  3d2-         1.619209     1.000000
    6.4 B1g   1  3d2-         3.508073     1.000000
    7.4 B1g   1  5g2-         0.189560     1.000000
    8.4 B1g   1  5g4-         0.189560     1.000000
    9.4 B1g   1  5g2-         0.377121     1.000000
   10.4 B1g   1  5g4-         0.377121     1.000000
   11.4 B1g   1  5g2-         0.750265     1.000000
   12.4 B1g   1  5g4-         0.750265     1.000000
   13.4 B1g   1  5g2-         1.492616     1.000000
   14.4 B1g   1  5g4-         1.492616     1.000000
   15.4 B1g   1  7i2-         0.415043     1.000000
   16.4 B1g   1  7i6-         0.415043     1.000000
   17.4 B1g   1  7i4-         0.415043     1.000000
   18.4 B1g   1  7i2-         1.037607     1.000000
   19.4 B1g   1  7i6-         1.037607     1.000000
   20.4 B1g   1  7i4-         1.037607     1.000000
    1.5 B1u   1  2pz         43.920200    -0.000358
                             21.015144     0.001542
                             10.055425    -0.007853
                              4.811367     0.011600
                              2.302165    -0.073557
                              1.101551     0.106140
                              0.527075     0.325738
                              0.252197     0.409301
                              0.120673     0.263709
                              0.057740     0.066722
    2.5 B1u   1  2pz          0.032465     1.000000
    3.5 B1u   1  2pz          0.068647     1.000000
    4.5 B1u   1  2pz          0.145154     1.000000
    5.5 B1u   1  2pz          0.306929     1.000000
    6.5 B1u   1  2pz          0.649001     1.000000
    7.5 B1u   1  2pz          1.372313     1.000000
    8.5 B1u   1  4f0          0.109257     1.000000
    9.5 B1u   1  4f2+         0.109257     1.000000
   10.5 B1u   1  4f0          0.215011     1.000000
   11.5 B1u   1  4f2+         0.215011     1.000000
   12.5 B1u   1  4f0          0.423129     1.000000
   13.5 B1u   1  4f2+         0.423129     1.000000
   14.5 B1u   1  4f0          0.832692     1.000000
   15.5 B1u   1  4f2+         0.832692     1.000000
   16.5 B1u   1  4f0          1.638688     1.000000
   17.5 B1u   1  4f2+         1.638688     1.000000
   18.5 B1u   1  6h2+         0.293710     1.000000
   19.5 B1u   1  6h4+         0.293710     1.000000
   20.5 B1u   1  6h0          0.293710     1.000000
   21.5 B1u   1  6h2+         0.614236     1.000000
   22.5 B1u   1  6h4+         0.614236     1.000000
   23.5 B1u   1  6h0          0.614236     1.000000
   24.5 B1u   1  6h2+         1.284550     1.000000
   25.5 B1u   1  6h4+         1.284550     1.000000
   26.5 B1u   1  6h0          1.284550     1.000000
    1.6 B2g   1  3d1+         0.073492     1.000000
    2.6 B2g   1  3d1+         0.159223     1.000000
    3.6 B2g   1  3d1+         0.344962     1.000000
    4.6 B2g   1  3d1+         0.747373     1.000000
    5.6 B2g   1  3d1+         1.619209     1.000000
    6.6 B2g   1  3d1+         3.508073     1.000000
    7.6 B2g   1  5g1+         0.189560     1.000000
    8.6 B2g   1  5g3+         0.189560     1.000000
    9.6 B2g   1  5g1+         0.377121     1.000000
   10.6 B2g   1  5g3+         0.377121     1.000000
   11.6 B2g   1  5g1+         0.750265     1.000000
   12.6 B2g   1  5g3+         0.750265     1.000000
   13.6 B2g   1  5g1+         1.492616     1.000000
   14.6 B2g   1  5g3+         1.492616     1.000000
   15.6 B2g   1  7i5+         0.415043     1.000000
   16.6 B2g   1  7i3+         0.415043     1.000000
   17.6 B2g   1  7i1+         0.415043     1.000000
   18.6 B2g   1  7i5+         1.037607     1.000000
   19.6 B2g   1  7i3+         1.037607     1.000000
   20.6 B2g   1  7i1+         1.037607     1.000000
    1.7 B3g   1  3d1-         0.073492     1.000000
    2.7 B3g   1  3d1-         0.159223     1.000000
    3.7 B3g   1  3d1-         0.344962     1.000000
    4.7 B3g   1  3d1-         0.747373     1.000000
    5.7 B3g   1  3d1-         1.619209     1.000000
    6.7 B3g   1  3d1-         3.508073     1.000000
    7.7 B3g   1  5g1-         0.189560     1.000000
    8.7 B3g   1  5g3-         0.189560     1.000000
    9.7 B3g   1  5g1-         0.377121     1.000000
   10.7 B3g   1  5g3-         0.377121     1.000000
   11.7 B3g   1  5g1-         0.750265     1.000000
   12.7 B3g   1  5g3-         0.750265     1.000000
   13.7 B3g   1  5g1-         1.492616     1.000000
   14.7 B3g   1  5g3-         1.492616     1.000000
   15.7 B3g   1  7i5-         0.415043     1.000000
   16.7 B3g   1  7i3-         0.415043     1.000000
   17.7 B3g   1  7i1-         0.415043     1.000000
   18.7 B3g   1  7i5-         1.037607     1.000000
   19.7 B3g   1  7i3-         1.037607     1.000000
   20.7 B3g   1  7i1-         1.037607     1.000000
    1.8 Au    1  4f2-         0.109257     1.000000
    2.8 Au    1  4f2-         0.215011     1.000000
    3.8 Au    1  4f2-         0.423129     1.000000
    4.8 Au    1  4f2-         0.832692     1.000000
    5.8 Au    1  4f2-         1.638688     1.000000
    6.8 Au    1  6h4-         0.293710     1.000000
    7.8 Au    1  6h2-         0.293710     1.000000
    8.8 Au    1  6h4-         0.614236     1.000000
    9.8 Au    1  6h2-         0.614236     1.000000
   10.8 Au    1  6h4-         1.284550     1.000000
   11.8 Au    1  6h2-         1.284550     1.000000

 NUCLEAR CHARGE:                    6
 NUMBER OF PRIMITIVE AOS:         329
 NUMBER OF SYMMETRY AOS:          224
 NUMBER OF CONTRACTIONS:          188   (  39Ag  +  26B3u +  26B2u +  20B1g +  26B1u +  20B2g +  20B3g +  11Au  )
 NUMBER OF CORE ORBITALS:           0   (   0Ag  +   0B3u +   0B2u +   0B1g +   0B1u +   0B2g +   0B3g +   0Au  )
 NUMBER OF VALENCE ORBITALS:        4   (   1Ag  +   1B3u +   1B2u +   0B1g +   1B1u +   0B2g +   0B3g +   0Au  )


 NUCLEAR REPULSION ENERGY    0.00000000

 EXTRA SYMMETRY OF AOS IN SYMMETRY 1:   1 1 1 1 1 1 1 2 3 2   3 2 3 2 3 2 3 2 3 4   5 6 4 5 6 4 5 6 4 5   6 7 8 910 7 8 910
 EXTRA SYMMETRY OF AOS IN SYMMETRY 2:   1 1 1 1 1 1 1 2 3 2   3 2 3 2 3 2 3 4 5 6   4 5 6 4 5 6
 EXTRA SYMMETRY OF AOS IN SYMMETRY 3:   1 1 1 1 1 1 1 2 3 2   3 2 3 2 3 2 3 4 5 6   4 5 6 4 5 6
 EXTRA SYMMETRY OF AOS IN SYMMETRY 4:   1 1 1 1 1 1 2 3 2 3   2 3 2 3 4 5 6 4 5 6
 EXTRA SYMMETRY OF AOS IN SYMMETRY 5:   1 1 1 1 1 1 1 2 3 2   3 2 3 2 3 2 3 4 5 6   4 5 6 4 5 6
 EXTRA SYMMETRY OF AOS IN SYMMETRY 6:   1 1 1 1 1 1 2 3 2 3   2 3 2 3 4 5 6 4 5 6
 EXTRA SYMMETRY OF AOS IN SYMMETRY 7:   1 1 1 1 1 1 2 3 2 3   2 3 2 3 4 5 6 4 5 6
 EXTRA SYMMETRY OF AOS IN SYMMETRY 8:   1 1 1 1 1 2 3 2 3 2   3

 Eigenvalues of metric

         1 0.778E-04 0.513E-03 0.451E-02 0.173E-01 0.173E-01 0.362E-01 0.596E-01 0.596E-01
         2 0.137E-03 0.580E-02 0.215E-01 0.215E-01 0.342E-01 0.125E+00 0.125E+00 0.157E+00
         3 0.137E-03 0.580E-02 0.215E-01 0.215E-01 0.342E-01 0.125E+00 0.125E+00 0.157E+00
         4 0.173E-01 0.596E-01 0.596E-01 0.764E-01 0.270E+00 0.329E+00 0.329E+00 0.533E+00
         5 0.137E-03 0.580E-02 0.215E-01 0.215E-01 0.342E-01 0.125E+00 0.125E+00 0.157E+00
         6 0.173E-01 0.596E-01 0.596E-01 0.764E-01 0.270E+00 0.329E+00 0.329E+00 0.533E+00
         7 0.173E-01 0.596E-01 0.596E-01 0.764E-01 0.270E+00 0.329E+00 0.329E+00 0.533E+00
         8 0.215E-01 0.125E+00 0.175E+00 0.175E+00 0.502E+00 0.804E+00 0.804E+00 0.145E+01


 Contracted 2-electron integrals neglected if value below      1.0D-12
 AO integral compression algorithm  1   Integral accuracy      1.0D-12

     121.111 MB (compressed) written to integral file ( 47.6%)


 NUMBER OF SORTED TWO-ELECTRON INTEGRALS:   20212815.     BUFFER LENGTH:  32768
 NUMBER OF SEGMENTS:   2  SEGMENT LENGTH:   15998787      RECORD LENGTH: 524288

 Memory used in sort:      16.56 MW

 SORT1 READ    31710950. AND WROTE    13213985. INTEGRALS IN     39 RECORDS. CPU TIME:     1.20 SEC, REAL TIME:     2.16 SEC
 SORT2 READ    13213985. AND WROTE    20212815. INTEGRALS IN    462 RECORDS. CPU TIME:     0.82 SEC, REAL TIME:     2.15 SEC

 FILE SIZES:   FILE 1:   141.0 MBYTE,  FILE 4:   163.6 MBYTE,   TOTAL:    304.6 MBYTE

 OPERATOR DM      FOR CENTER  0  COORDINATES:    0.000000    0.000000    0.000000
 OPERATOR EKIN    FOR CENTER  0  COORDINATES:    0.000000    0.000000    0.000000
 OPERATOR POT     FOR CENTER  0  COORDINATES:    0.000000    0.000000    0.000000


 **********************************************************************************************************************************
 DATASETS  * FILE   NREC   LENGTH (MB)   RECORD NAMES
              1      20       97.95       500      610      700      900      950      970     1000      129      960     1100   
                                          VAR    BASINP    GEOM    SYMINP    ZMAT    AOBASIS   BASIS     P2S    ABASIS      S 
                                         1400     1410     1420     1200     1210     1080     1600     1650     1300     1700   
                                         EKIN       V       ECP      H0       H01     AOSYM     SMH    MOLCAS    ERIS     OPER   

 PROGRAMS   *        TOTAL       INT
 CPU TIMES  *         9.53      9.38
 REAL TIME  *        14.08 SEC
 DISK USED  *       304.96 MB      
 **********************************************************************************************************************************


 PROGRAM * RHF-SCF (OPEN SHELL)       Authors: W. Meyer, H.-J. Werner


 NUMBER OF ELECTRONS:       4+    2-    SPACE SYMMETRY=7    SPIN SYMMETRY: Triplet 
 CONVERGENCE THRESHOLDS:    1.00E-05 (Density)    1.00E-07 (Energy)
 MAX. NUMBER OF ITERATIONS:       60
 INTERPOLATION TYPE:            DIIS
 INTERPOLATION STEPS:              2 (START)      1 (STEP)
 LEVEL SHIFTS:                 -0.60 (CLOSED) -0.30 (OPEN) 


 Singly occupied orbitals:      1.3       1.5

   Atom=S  basis=ECP10MWB_GUESS    lmin=0  lmax=1

 Orbital guess generated from atomic densities. Full valence occupancy:    1   1   1   0   1   0   0   0


 Molecular orbital dump at record        4202.2

 ITERATION    DDIFF          GRAD             ENERGY        2-EL.EN.            DIPOLE MOMENTS         DIIS   ORB.
    1      0.000D+00      0.000D+00        -9.91375824     12.497291    0.00000    0.00000    0.00000    0    start
    2      0.000D+00      0.492D-02        -9.92070784     12.700848    0.00000    0.00000    0.00000    1    diag,B
    3      0.440D-02      0.148D-02        -9.92179039     12.774267    0.00000    0.00000    0.00000    2    diag,B
    4      0.113D-02      0.540D-03        -9.92194788     12.793564    0.00000    0.00000    0.00000    3    diag,B
    5      0.754D-03      0.113D-03        -9.92195403     12.794993    0.00000    0.00000    0.00000    4    diag,B
    6      0.178D-03      0.246D-04        -9.92195429     12.795084    0.00000    0.00000    0.00000    5    diag,B
    7      0.706D-04      0.725D-05        -9.92195431     12.795013    0.00000    0.00000    0.00000    6    fixocc
    8      0.279D-04      0.208D-05        -9.92195431     12.795037    0.00000    0.00000    0.00000    7    diag,B
    9      0.961D-05      0.446D-06        -9.92195431     12.795037    0.00000    0.00000    0.00000    0    orth

 Final alpha occupancy:   1   1   1   0   1   0   0   0
 Final beta  occupancy:   1   1   0   0   0   0   0   0

 !RHF STATE 1.7 Energy                 -9.921954313001
 Nuclear energy                         0.00000000
 One-electron energy                  -16.31947292
 Two-electron energy                    6.39751861
 Virial quotient                       -2.67911872
 !RHF STATE 1.7 Dipole moment           0.00000000     0.00000000     0.00000000
 Dipole moment /Debye                   0.00000000     0.00000000     0.00000000
 

 !RHF expec          <1.7|EKIN|1.7>     3.703439578941
 
 !RHF expec           <1.7|POT|1.7>    -3.637460829484

 ELECTRON ORBITALS
 =================


   Orb  Occ    Energy  Couls-En    Coefficients

                                   1 1s      1 1s      1 1s      1 1s      1 1s      1 1s      1 1s      1 3d0     1 3d2+    1 3d0  
                                   1 3d2+    1 3d0     1 3d2+    1 3d0     1 3d2+    1 3d0     1 3d2+    1 3d0     1 3d2+    1 5g0  
                                   1 5g4+    1 5g2+    1 5g0     1 5g4+    1 5g2+    1 5g0     1 5g4+    1 5g2+    1 5g0     1 5g4+ 
                                   1 5g2+    1 7i6+    1 7i4+    1 7i2+    1 7i0     1 7i6+    1 7i4+    1 7i2+    1 7i0  

   1.1   2    -0.8839   -3.9819  0.927784  0.010127 -0.023822  0.097245 -0.050476  0.088113 -0.056254 -0.000659  0.001141 -0.002296
                                 0.003976 -0.000674  0.001167  0.000082 -0.000142 -0.000425  0.000737 -0.000137  0.000237 -0.000014
                                -0.000027  0.000020 -0.000003 -0.000006  0.000005  0.000001  0.000002 -0.000002 -0.000000 -0.000001
                                 0.000001 -0.000001  0.000001 -0.000000  0.000000 -0.000000  0.000000 -0.000000  0.000000

                                   1 2px     1 2px     1 2px     1 2px     1 2px     1 2px     1 2px     1 4f1+    1 4f3+    1 4f1+ 
                                   1 4f3+    1 4f1+    1 4f3+    1 4f1+    1 4f3+    1 4f1+    1 4f3+    1 6h1+    1 6h3+    1 6h5+ 
                                   1 6h1+    1 6h3+    1 6h5+    1 6h1+    1 6h3+    1 6h5+ 

   1.2   2    -0.3963   -2.9087  0.986006  0.004517  0.020506  0.010201 -0.010480 -0.002378  0.001788  0.001030 -0.001329  0.002124
                                -0.002743  0.002854 -0.003685  0.001344 -0.001735  0.000330 -0.000426  0.000022 -0.000024  0.000032
                                 0.000016 -0.000017  0.000023  0.000005 -0.000005  0.000007

                                   1 2py     1 2py     1 2py     1 2py     1 2py     1 2py     1 2py     1 4f1-    1 4f3-    1 4f1- 
                                   1 4f3-    1 4f1-    1 4f3-    1 4f1-    1 4f3-    1 4f1-    1 4f3-    1 6h1-    1 6h3-    1 6h5- 
                                   1 6h1-    1 6h3-    1 6h5-    1 6h1-    1 6h3-    1 6h5- 

   1.3   +    -0.4821   -3.0313  1.006164 -0.001778 -0.020998 -0.009089  0.013132  0.006196 -0.002690  0.000495 -0.001918  0.001414
                                -0.005478  0.002139 -0.008285  0.001072 -0.004150  0.000246 -0.000954  0.000017 -0.000055  0.000124
                                 0.000017 -0.000055  0.000124  0.000005 -0.000018  0.000040

                                   1 2pz     1 2pz     1 2pz     1 2pz     1 2pz     1 2pz     1 2pz     1 4f0     1 4f2+    1 4f0  
                                   1 4f2+    1 4f0     1 4f2+    1 4f0     1 4f2+    1 4f0     1 4f2+    1 6h2+    1 6h4+    1 6h0  
                                   1 6h2+    1 6h4+    1 6h0     1 6h2+    1 6h4+    1 6h0  

   1.5   +    -0.4821   -3.0313  1.006164 -0.001778 -0.020998 -0.009089  0.013132  0.006196 -0.002690  0.001213 -0.001566  0.003465
                                -0.004473  0.005240 -0.006765  0.002625 -0.003389  0.000603 -0.000779 -0.000090  0.000078  0.000066
                                -0.000090  0.000078  0.000066 -0.000029  0.000025  0.000021

 HOMO      1.2    -0.396267 =     -10.7830eV
 LUMO      2.3     0.070352 =       1.9144eV
 LUMO-HOMO         0.466619 =      12.6974eV


 **********************************************************************************************************************************
 DATASETS  * FILE   NREC   LENGTH (MB)   RECORD NAMES
              1      20       97.95       500      610      700      900      950      970     1000      129      960     1100   
                                          VAR    BASINP    GEOM    SYMINP    ZMAT    AOBASIS   BASIS     P2S    ABASIS      S 
                                         1400     1410     1420     1200     1210     1080     1600     1650     1300     1700   
                                         EKIN       V       ECP      H0       H01     AOSYM     SMH    MOLCAS    ERIS     OPER   

              2       4        2.92       700     1000      520     4202   
                                         GEOM     BASIS   MCVARS     RHF  

 PROGRAMS   *        TOTAL       RHF       INT
 CPU TIMES  *        10.27      0.75      9.38
 REAL TIME  *        15.12 SEC
 DISK USED  *       304.96 MB      
 **********************************************************************************************************************************


 PROGRAM * MULTI (Direct Multiconfiguration SCF)       Authors: P.J. Knowles, H.-J. Werner (1984)     S.T. Elbert (1988)


 Number of closed-shell orbitals:   1 (   1   0   0   0   0   0   0   0 )
 Number of active  orbitals:        3 (   0   1   1   0   1   0   0   0 )
 Number of external orbitals:     184 (  38  25  25  20  25  20  20  11 )

 State symmetry 1

 Number of electrons:     4    Spin symmetry=Triplet   Space symmetry=4
 Number of states:        1
 Number of CSFs:          1   (1 determinants, 3 intermediate states)

 State symmetry 2

 Number of electrons:     4    Spin symmetry=Triplet   Space symmetry=6
 Number of states:        1
 Number of CSFs:          1   (1 determinants, 3 intermediate states)

 State symmetry 3

 Number of electrons:     4    Spin symmetry=Triplet   Space symmetry=7
 Number of states:        1
 Number of CSFs:          1   (1 determinants, 3 intermediate states)

 Iteration controls:
             1  2  3  4  5  6  7  8  9 10 11 12 13 14 15 16 17 18 19 20 21 22 23 24 25 26 27 28 29 30 31 32 33 34 35 36 37 38 39
 DIAGCI      T  T  T  T  T  T  T  T  T  T  T  T  T  T  T  T  T  T  T  T  T  T  T  T  T  T  T  T  T  T  T  T  T  T  T  T  T  T  T
 WERNER      T  T  T  T  T  T  T  T  T  T  T  T  T  T  T  T  T  T  T  T  T  T  T  T  T  T  T  T  T  T  T  T  T  T  T  T  T  T  T
 INTERNAL    F  T  T  T  T  T  T  T  T  T  T  T  T  T  T  T  T  T  T  T  T  T  T  T  T  T  T  T  T  T  T  T  T  T  T  T  T  T  T

 Molecular orbitals read from record     4202.2  Type=RHF/CANONICAL (state 1.7)
 *** IN SYMMETRY 1 ORBITAL  1 SYMMETRY CONTAMINATION OF 0.929D-02 HAS BEEN REMOVED

 EXTRA SYMMETRY OF MOS IN SYMMETRY 1:   1 1 2 3 1 2 3 4 5 6   2 3 1 4 5 6 2 3 9 8   710 1 4 5 6 2 3 1 9   8 710 4 5 6 2 3 1
 *** IN SYMMETRY 2 ORBITAL  1 SYMMETRY CONTAMINATION OF 0.168D-01 HAS BEEN REMOVED
 EXTRA SYMMETRY OF MOS IN SYMMETRY 2:   1 1 1 2 3 1 2 3 5 6   4 2 3 1 5 6 4 2 3 1   2 3 5 6 4 1
 *** IN SYMMETRY 3 ORBITAL  1 SYMMETRY CONTAMINATION OF 0.245D-01 HAS BEEN REMOVED
 EXTRA SYMMETRY OF MOS IN SYMMETRY 3:   1 1 1 2 3 1 2 3 4 5   6 2 1 1 4 5 6 2 3 1   2 3 4 5 6 3
 EXTRA SYMMETRY OF MOS IN SYMMETRY 4:   1 1 2 3 1 2 3 1 4 6   5 2 3 1 4 6 5 2 3 1
 *** IN SYMMETRY 5 ORBITAL  1 SYMMETRY CONTAMINATION OF 0.281D-01 HAS BEEN REMOVED
 EXTRA SYMMETRY OF MOS IN SYMMETRY 5:   1 1 1 2 3 1 2 3 6 5   4 2 1 1 6 5 4 2 3 1   3 3 6 5 4 2
 EXTRA SYMMETRY OF MOS IN SYMMETRY 6:   1 1 3 2 1 3 2 1 5 4   6 3 2 1 5 4 6 3 2 1
 EXTRA SYMMETRY OF MOS IN SYMMETRY 7:   1 1 2 3 1 2 3 1 6 5   4 2 3 1 6 5 4 2 3 1
 EXTRA SYMMETRY OF MOS IN SYMMETRY 8:   1 1 3 2 1 3 2 1 1 3   2

 Wavefunction dump at record             5202.2

 Convergence thresholds  0.10E-01 (gradient)  0.10E-05 (energy)  0.10E-02 (step length)

 Weight factors for state symmetry  1:    0.33333
 Weight factors for state symmetry  2:    0.33333
 Weight factors for state symmetry  3:    0.33333

 Number of orbital rotations:      113   (     0 Core/Active     38 Core/Virtual   0 Active/Active     75 Active/Virtual)
 Total number of variables:        116


 ITER. MIC  NCI  NEG     ENERGY(VAR)     ENERGY(PROJ)   ENERGY CHANGE     GRAD(0)  GRAD(ORB)   GRAD(CI)     STEP       TIME

   1   23   12    0      -9.91844191      -9.91953291   -0.00109100    0.03100413 0.00000000 0.00000000  0.41D-01      0.23
   2   13   12    0      -9.91953612      -9.91953615   -0.00000003    0.00018720 0.00000000 0.00000000  0.20D-03      0.41
   3   15   12    0      -9.91953615      -9.91953615   -0.00000000    0.00000001 0.00000000 0.00000000  0.72D-08      0.58

 ** WVFN ****  CONVERGENCE REACHED, FINAL GRADIENT:  0.11D-12



 Results for state 1.4
 =====================

 !MCSCF STATE 1.4 Energy               -9.919536151048
 Nuclear energy                         0.00000000
 Kinetic energy                         3.70147162
 One electron energy                  -16.32292622
 Two electron energy                    6.40339007
 Virial ratio                           3.67988983

 !MCSCF STATE 1.4 Dipole moment         0.00000000     0.00000000     0.00000000
 Dipole moment /Debye                   0.00000000     0.00000000     0.00000000



 Results for state 1.6
 =====================

 !MCSCF STATE 1.6 Energy               -9.919536151048
 Nuclear energy                         0.00000000
 Kinetic energy                         3.70147162
 One electron energy                  -16.32292622
 Two electron energy                    6.40339007
 Virial ratio                           3.67988983

 !MCSCF STATE 1.6 Dipole moment         0.00000000     0.00000000     0.00000000
 Dipole moment /Debye                   0.00000000     0.00000000     0.00000000



 Results for state 1.7
 =====================

 !MCSCF STATE 1.7 Energy               -9.919536151048
 Nuclear energy                         0.00000000
 Kinetic energy                         3.70147162
 One electron energy                  -16.32292622
 Two electron energy                    6.40339007
 Virial ratio                           3.67988983

 !MCSCF STATE 1.7 Dipole moment         0.00000000     0.00000000     0.00000000
 Dipole moment /Debye                   0.00000000     0.00000000     0.00000000

 State-averaged charge density matrix saved on record  5202.2 (density set 1)

 !MCSCF expec        <1.4|EKIN|1.4>     3.701471620301
 !MCSCF expec        <1.6|EKIN|1.6>     3.701471620301
 !MCSCF expec        <1.7|EKIN|1.7>     3.701471620301

 !MCSCF expec         <1.4|POT|1.4>    -3.637698720824
 !MCSCF expec         <1.6|POT|1.6>    -3.637698720824
 !MCSCF expec         <1.7|POT|1.7>    -3.637698720824


 NATURAL ORBITALS (state averaged)
 =================================

   Orb     Occ        Energy       Coefficients

                                   1 1s      1 1s      1 1s      1 1s      1 1s      1 1s      1 1s      1 3d0     1 3d2+    1 3d0  
                                   1 3d2+    1 3d0     1 3d2+    1 3d0     1 3d2+    1 3d0     1 3d2+    1 3d0     1 3d2+    1 5g0  
                                   1 5g4+    1 5g2+    1 5g0     1 5g4+    1 5g2+    1 5g0     1 5g4+    1 5g2+    1 5g0     1 5g4+ 
                                   1 5g2+    1 7i6+    1 7i4+    1 7i2+    1 7i0     1 7i6+    1 7i4+    1 7i2+    1 7i0  

   1.1  2.00000    -0.883647     0.927766  0.010012 -0.023440  0.097201 -0.050722  0.088165 -0.056227  0.000000  0.000000  0.000000
                                 0.000000  0.000000  0.000000  0.000000  0.000000  0.000000  0.000000  0.000000  0.000000  0.000000
                                 0.000000  0.000000  0.000000  0.000000  0.000000  0.000000  0.000000  0.000000  0.000000  0.000000
                                 0.000000  0.000000  0.000000  0.000000  0.000000  0.000000  0.000000  0.000000  0.000000

                                   1 2px     1 2px     1 2px     1 2px     1 2px     1 2px     1 2px     1 4f1+    1 4f3+    1 4f1+ 
                                   1 4f3+    1 4f1+    1 4f3+    1 4f1+    1 4f3+    1 4f1+    1 4f3+    1 6h1+    1 6h3+    1 6h5+ 
                                   1 6h1+    1 6h3+    1 6h5+    1 6h1+    1 6h3+    1 6h5+ 

   1.2  1.33333    -0.283324     0.996746  0.000649 -0.000831  0.002139  0.000586  0.001427 -0.000263  0.000000  0.000000  0.000000
                                 0.000000  0.000000  0.000000  0.000000  0.000000  0.000000  0.000000  0.000000  0.000000  0.000000
                                 0.000000  0.000000  0.000000  0.000000  0.000000  0.000000

                                   1 2py     1 2py     1 2py     1 2py     1 2py     1 2py     1 2py     1 4f1-    1 4f3-    1 4f1- 
                                   1 4f3-    1 4f1-    1 4f3-    1 4f1-    1 4f3-    1 4f1-    1 4f3-    1 6h1-    1 6h3-    1 6h5- 
                                   1 6h1-    1 6h3-    1 6h5-    1 6h1-    1 6h3-    1 6h5- 

   1.3  1.33333    -0.283324     0.996746  0.000649 -0.000831  0.002139  0.000586  0.001427 -0.000263  0.000000  0.000000  0.000000
                                 0.000000  0.000000  0.000000  0.000000  0.000000  0.000000  0.000000  0.000000  0.000000  0.000000
                                 0.000000  0.000000  0.000000  0.000000  0.000000  0.000000

                                   1 2pz     1 2pz     1 2pz     1 2pz     1 2pz     1 2pz     1 2pz     1 4f0     1 4f2+    1 4f0  
                                   1 4f2+    1 4f0     1 4f2+    1 4f0     1 4f2+    1 4f0     1 4f2+    1 6h2+    1 6h4+    1 6h0  
                                   1 6h2+    1 6h4+    1 6h0     1 6h2+    1 6h4+    1 6h0  

   1.5  1.33333    -0.283324     0.996746  0.000649 -0.000831  0.002139  0.000586  0.001427 -0.000263  0.000000  0.000000  0.000000
                                 0.000000  0.000000  0.000000  0.000000  0.000000  0.000000  0.000000  0.000000  0.000000  0.000000
                                 0.000000  0.000000  0.000000  0.000000  0.000000  0.000000
 

 EXTRA SYMMETRY OF MOS IN SYMMETRY 1:   1 1 2 3 1 2 3 6 5 4   2 3 1 6 4 5 2 3 810   9 7 1 4 6 5 2 3 1 8  10 9 7 4 6 5 2 3 1
 EXTRA SYMMETRY OF MOS IN SYMMETRY 2:   1 1 1 3 2 1 3 2 5 4   6 3 2 1 4 5 6 3 2 1   2 3 4 5 6 1
 EXTRA SYMMETRY OF MOS IN SYMMETRY 3:   1 1 1 3 2 1 3 2 5 4   6 3 2 1 4 5 6 3 2 1   2 3 4 5 6 1
 EXTRA SYMMETRY OF MOS IN SYMMETRY 4:   1 1 2 3 1 2 3 1 6 4   5 2 3 1 6 4 5 2 3 1
 EXTRA SYMMETRY OF MOS IN SYMMETRY 5:   1 1 1 3 2 1 3 2 4 5   6 3 2 1 4 5 6 3 2 1   3 2 4 6 5 1
 EXTRA SYMMETRY OF MOS IN SYMMETRY 6:   1 1 3 2 1 3 2 1 6 4   5 3 2 1 4 5 6 3 2 1
 EXTRA SYMMETRY OF MOS IN SYMMETRY 7:   1 1 3 2 1 3 2 1 6 4   5 3 2 1 4 5 6 3 2 1

 Natural orbital dump (state averaged) at molpro section  5202.2    (Orbital set 2)


 CI vector for state symmetry 1
 ==============================

 a a 2           1.0000000

 TOTAL ENERGIES                        -9.91953615

 CI vector for state symmetry 2
 ==============================

 a 2 a           1.0000000

 TOTAL ENERGIES                        -9.91953615

 CI vector for state symmetry 3
 ==============================

 2 a a           1.0000000

 TOTAL ENERGIES                        -9.91953615



 **********************************************************************************************************************************
 DATASETS  * FILE   NREC   LENGTH (MB)   RECORD NAMES
              1      21       98.59       500      610      700      900      950      970     1000      129      960     1100   
                                          VAR    BASINP    GEOM    SYMINP    ZMAT    AOBASIS   BASIS     P2S    ABASIS      S 
                                         1400     1410     1420     1200     1210     1080     1600     1650     1300     1700   
                                         EKIN       V       ECP      H0       H01     AOSYM     SMH    MOLCAS    ERIS     OPER   
                                         1380   
                                         JKOP   

              2       5        5.60       700     1000      520     4202     5202   
                                         GEOM     BASIS   MCVARS     RHF     MCSCF   

 PROGRAMS   *        TOTAL     MULTI       RHF       INT
 CPU TIMES  *        11.05      0.78      0.75      9.38
 REAL TIME  *        20.16 SEC
 DISK USED  *       304.96 MB      
 **********************************************************************************************************************************


 PROGRAM * RHF-SCF (OPEN SHELL)       Authors: W. Meyer, H.-J. Werner


 NUMBER OF ELECTRONS:       4+    2-    SPACE SYMMETRY=7    SPIN SYMMETRY: Triplet 
 CONVERGENCE THRESHOLDS:    1.00E-05 (Density)    1.00E-07 (Energy)
 MAX. NUMBER OF ITERATIONS:        0
 INTERPOLATION TYPE:            DIIS
 INTERPOLATION STEPS:              2 (START)      1 (STEP)
 LEVEL SHIFTS:                 -0.60 (CLOSED) -0.30 (OPEN) 


 Singly occupied orbitals:      1.3       1.5
 Molecular orbitals read from record     5202.2  Type=MCSCF/NATURAL (state averaged)

 Molecular orbital dump at record        2101.2

 ITERATION    DDIFF          GRAD             ENERGY        2-EL.EN.            DIPOLE MOMENTS         DIIS   ORB.
    1      0.000D+00      0.000D+00        -9.91953615     12.806780    0.00000    0.00000    0.00000    0    start

 Final alpha occupancy:   1   1   1   0   1   0   0   0
 Final beta  occupancy:   1   1   0   0   0   0   0   0

 !RHF STATE 1.7 Energy                 -9.919536151048
 Nuclear energy                         0.00000000
 One-electron energy                  -16.32292622
 Two-electron energy                    6.40339007
 Virial quotient                       -2.67988983
 !RHF STATE 1.7 Dipole moment           0.00000000     0.00000000     0.00000000
 Dipole moment /Debye                   0.00000000     0.00000000     0.00000000
 

 !RHF expec          <1.7|EKIN|1.7>     3.701471620301
 
 !RHF expec           <1.7|POT|1.7>    -3.637698720824

 ELECTRON ORBITALS
 =================


   Orb  Occ    Energy  Couls-En    Coefficients

                                   1 1s      1 1s      1 1s      1 1s      1 1s      1 1s      1 1s      1 3d0     1 3d2+    1 3d0  
                                   1 3d2+    1 3d0     1 3d2+    1 3d0     1 3d2+    1 3d0     1 3d2+    1 3d0     1 3d2+    1 5g0  
                                   1 5g4+    1 5g2+    1 5g0     1 5g4+    1 5g2+    1 5g0     1 5g4+    1 5g2+    1 5g0     1 5g4+ 
                                   1 5g2+    1 7i6+    1 7i4+    1 7i2+    1 7i0     1 7i6+    1 7i4+    1 7i2+    1 7i0  

   1.1   2    -0.8836   -3.9817  0.927766  0.010012 -0.023440  0.097201 -0.050722  0.088165 -0.056227  0.000000  0.000000  0.000000
                                 0.000000  0.000000  0.000000  0.000000  0.000000  0.000000  0.000000  0.000000  0.000000  0.000000
                                 0.000000  0.000000  0.000000  0.000000  0.000000  0.000000  0.000000  0.000000  0.000000  0.000000
                                 0.000000  0.000000  0.000000  0.000000  0.000000  0.000000  0.000000  0.000000  0.000000

                                   1 2px     1 2px     1 2px     1 2px     1 2px     1 2px     1 2px     1 4f1+    1 4f3+    1 4f1+ 
                                   1 4f3+    1 4f1+    1 4f3+    1 4f1+    1 4f3+    1 4f1+    1 4f3+    1 6h1+    1 6h3+    1 6h5+ 
                                   1 6h1+    1 6h3+    1 6h5+    1 6h1+    1 6h3+    1 6h5+ 

   1.2   2    -0.2833   -2.8150  0.996746  0.000649 -0.000831  0.002139  0.000586  0.001427 -0.000263  0.000000  0.000000  0.000000
                                 0.000000  0.000000  0.000000  0.000000  0.000000  0.000000  0.000000  0.000000  0.000000  0.000000
                                 0.000000  0.000000  0.000000  0.000000  0.000000  0.000000

                                   1 2py     1 2py     1 2py     1 2py     1 2py     1 2py     1 2py     1 4f1-    1 4f3-    1 4f1- 
                                   1 4f3-    1 4f1-    1 4f3-    1 4f1-    1 4f3-    1 4f1-    1 4f3-    1 6h1-    1 6h3-    1 6h5- 
                                   1 6h1-    1 6h3-    1 6h5-    1 6h1-    1 6h3-    1 6h5- 

   1.3   +    -0.2833   -2.8150  0.996746  0.000649 -0.000831  0.002139  0.000586  0.001427 -0.000263  0.000000  0.000000  0.000000
                                 0.000000  0.000000  0.000000  0.000000  0.000000  0.000000  0.000000  0.000000  0.000000  0.000000
                                 0.000000  0.000000  0.000000  0.000000  0.000000  0.000000

                                   1 2pz     1 2pz     1 2pz     1 2pz     1 2pz     1 2pz     1 2pz     1 4f0     1 4f2+    1 4f0  
                                   1 4f2+    1 4f0     1 4f2+    1 4f0     1 4f2+    1 4f0     1 4f2+    1 6h2+    1 6h4+    1 6h0  
                                   1 6h2+    1 6h4+    1 6h0     1 6h2+    1 6h4+    1 6h0  

   1.5   +    -0.2833   -2.8150  0.996746  0.000649 -0.000831  0.002139  0.000586  0.001427 -0.000263  0.000000  0.000000  0.000000
                                 0.000000  0.000000  0.000000  0.000000  0.000000  0.000000  0.000000  0.000000  0.000000  0.000000
                                 0.000000  0.000000  0.000000  0.000000  0.000000  0.000000

 HOMO      1.2    -0.283324 =      -7.7097eV
 LUMO      2.2     0.073955 =       2.0124eV
 LUMO-HOMO         0.357279 =       9.7221eV


 **********************************************************************************************************************************
 DATASETS  * FILE   NREC   LENGTH (MB)   RECORD NAMES
              1      21       98.59       500      610      700      900      950      970     1000      129      960     1100   
                                          VAR    BASINP    GEOM    SYMINP    ZMAT    AOBASIS   BASIS     P2S    ABASIS      S 
                                         1400     1410     1420     1200     1210     1080     1600     1650     1300     1700   
                                         EKIN       V       ECP      H0       H01     AOSYM     SMH    MOLCAS    ERIS     OPER   
                                         1380   
                                         JKOP   

              2       6        8.31       700     1000      520     4202     5202     2101   
                                         GEOM     BASIS   MCVARS     RHF     MCSCF     RHF  

 PROGRAMS   *        TOTAL       RHF     MULTI       RHF       INT
 CPU TIMES  *        11.11      0.06      0.78      0.75      9.38
 REAL TIME  *        20.37 SEC
 DISK USED  *       304.96 MB      
 **********************************************************************************************************************************
 SETTING SCF(I)         =        -9.91953615  AU                              
 SETTING _CC_NORM_MAX   =         2.00000000                                  


 PROGRAM * CCSD (Unrestricted open-shell coupled cluster)     Authors: C. Hampel, H.-J. Werner, 1991, M. Deegan, P.J. Knowles, 1992


 Convergence thresholds:  THRVAR = 1.00D-08  THRDEN = 1.00D-06

 CCSD(T)     terms to be evaluated (factor= 1.000)


 Number of closed-shell orbitals:   2 (   1   1   0   0   0   0   0   0 )
 Number of active  orbitals:        2 (   0   0   1   0   1   0   0   0 )
 Number of external orbitals:     184 (  38  25  25  20  25  20  20  11 )

 Memory could be reduced to 8.72 Mwords without degradation in triples

 Number of N-1 electron functions:               6
 Number of N-2 electron functions:              15
 Number of singly external CSFs:               178
 Number of doubly external CSFs:             50799
 Total number of CSFs:                       50977

 Molecular orbitals read from record     2101.2  Type=RHF/CANONICAL (state 1.7)

 Integral transformation finished. Total CPU:   0.29 sec, npass=  1  Memory used:   1.35 MW

 Starting RMP2 calculation

 ITER.      SQ.NORM     CORR.ENERGY   TOTAL ENERGY   ENERGY CHANGE        DEN1      VAR(S)    VAR(P)  DIIS     TIME
   1      1.06029697    -0.15106636   -10.07060251    -0.15106636    -0.00095540  0.49D-04  0.42D-03  1  1     0.29
   2      1.06148707    -0.15213224   -10.07166839    -0.00106588    -0.00000193  0.39D-06  0.72D-06  2  2     0.29
   3      1.06151770    -0.15214583   -10.07168198    -0.00001359    -0.00000001  0.69D-08  0.17D-08  3  3     0.29
   4      1.06151889    -0.15214613   -10.07168228    -0.00000030    -0.00000000  0.11D-09  0.48D-11  4  4     0.30

 Norm of t1 vector:      0.06385591      S-energy:    -0.00541199      T1 diagnostic:  0.01132601
 Norm of t2 vector:      0.23966918      P-energy:    -0.14673414
                                         Alpha-Beta:  -0.11633984
                                         Alpha-Alpha: -0.02657873
                                         Beta-Beta:   -0.00381557

 Spin contamination <S**2-Sz**2-Sz>     0.00592589
  Reference energy                     -9.919536151048
  RHF-RMP2 correlation energy          -0.152146130604
 !RHF-RMP2 energy                     -10.071682281652

 Starting UCCSD calculation

 ITER.      SQ.NORM     CORR.ENERGY   TOTAL ENERGY   ENERGY CHANGE        DEN1      VAR(S)    VAR(P)  DIIS     TIME
   1      1.07231327    -0.16144475   -10.08098090    -0.16144475    -0.00614183  0.43D-03  0.22D-02  1  1     0.66
   2      1.08181360    -0.16855122   -10.08808737    -0.00710647    -0.00021818  0.21D-04  0.79D-04  2  2     1.02
   3      1.08354486    -0.16934948   -10.08888563    -0.00079827    -0.00001785  0.23D-05  0.71D-05  3  3     1.38
   4      1.08399465    -0.16948710   -10.08902325    -0.00013762    -0.00000148  0.15D-06  0.68D-06  4  4     1.73
   5      1.08411047    -0.16951680   -10.08905295    -0.00002970    -0.00000013  0.92D-08  0.73D-07  5  5     2.09
   6      1.08412428    -0.16951681   -10.08905296    -0.00000001    -0.00000002  0.12D-08  0.13D-07  6  6     2.41
   7      1.08412895    -0.16951737   -10.08905352    -0.00000056    -0.00000000  0.28D-09  0.17D-08  6  1     2.78

 Norm of t1 vector:      0.07895748      S-energy:    -0.00616513      T1 diagnostic:  0.01660766
                                                                       D1 diagnostic:  0.02469185
 Norm of t2 vector:      0.27909615      P-energy:    -0.16335224
                                         Alpha-Beta:  -0.13272810
                                         Alpha-Alpha: -0.02707468
                                         Beta-Beta:   -0.00354946

 Spin contamination <S**2-Sz**2-Sz>     0.00369020

 Memory could be reduced to 8.87 Mwords without degradation in triples
 

 RESULTS
 =======

  Reference energy                     -9.919536151048
  UCCSD singles energy                 -0.006165127197
  UCCSD pair energy                    -0.163352243074
  UCCSD correlation energy             -0.169517370271
  Triples (T) contribution             -0.007127290072
  Total correlation energy             -0.176644660343
 
  RHF-UCCSD energy                    -10.089053521319
  RHF-UCCSD[T] energy                 -10.096147721358
  RHF-UCCSD-T energy                  -10.096164126054
 !RHF-UCCSD(T) energy                 -10.096180811391

 Program statistics:

 Available memory in ccsd:               511999732
 Min. memory needed in ccsd:                275875
 Max. memory used in ccsd:                  323005
 Max. memory used in cckext:                294789 ( 7 integral passes)
 Max. memory used in cckint:               1349842 ( 1 integral passes)



 **********************************************************************************************************************************
 DATASETS  * FILE   NREC   LENGTH (MB)   RECORD NAMES
              1      21       98.59       500      610      700      900      950      970     1000      129      960     1100   
                                          VAR    BASINP    GEOM    SYMINP    ZMAT    AOBASIS   BASIS     P2S    ABASIS      S 
                                         1400     1410     1420     1200     1210     1080     1600     1650     1300     1700   
                                         EKIN       V       ECP      H0       H01     AOSYM     SMH    MOLCAS    ERIS     OPER   
                                         1380   
                                         JKOP   

              2       6        8.31       700     1000      520     4202     5202     2101   
                                         GEOM     BASIS   MCVARS     RHF     MCSCF     RHF  

 PROGRAMS   *        TOTAL  UCCSD(T)       RHF     MULTI       RHF       INT
 CPU TIMES  *        15.25      4.13      0.06      0.78      0.75      9.38
 REAL TIME  *        26.13 SEC
 DISK USED  *       304.96 MB      
 **********************************************************************************************************************************
 SETTING POSTHF(I)      =       -10.09618081  AU                              
                                                                                                                                                                                                                                                                

       SCF            POSTHF       EKIN          POT
    -9.91953615   -10.09618081   3.70147162   -3.63769872
                                                  

 UCCSD(T)/USERDEF energy=    -10.096180811391

        UCCSD(T)        RHF-SCF         MULTI           RHF-SCF 
    -10.09618081     -9.91953615     -9.91953615     -9.92195431
 **********************************************************************************************************************************
 Variable memory released
