
 Primary working directories    : /global/cscratch1/sd/aannabe
 Secondary working directories  : /global/cscratch1/sd/aannabe
 Wavefunction directory         : /global/homes/a/aannabe/wfu/
 Main file repository           : /global/cscratch1/sd/aannabe/

 SHA1      : 2873118e99aab1bc19f5b6fc1784693c06d15c95
 NAME      : 2015.1.8
 ARCHNAME  : linux/x86_64
 FC        : /opt/cray/pe/craype/2.5.5/bin/ftn
 BLASLIB   : -Wl,-_start-group /opt/intel/compilers_and_libraries_2016.3.210/linux/mkl/lib/intel64/libmkl_intel_ilp64.a /opt/intel/compilers_and_libraries_2016.3.210/linux/mkl/lib/intel64/libmkl_intel_thread.a /opt/intel/compilers_and_libraries_2016.3.210/linux/mkl/lib/intel64/libmkl_core.a -Wl,-_end-group
 id        : lbl

 Nodes     nprocs
 nid00497     1

 Using customized tuning parameters: mindgm=8; mindgv=16; mindgc=4; mindgr=1; noblas=0; minvec=7
 default implementation of scratch files=df  

 ***,S
 memory,512,m
 gthresh,twoint=1.e-12
 
 gprint,basis,orbitals
 gexpec,ekin,pot
 
 angstrom
 geometry={
 1                                                                               ! Number of atoms
 S 0.0 0.0 0.0
 }
 
 basis={
 Including file /global/homes/a/aannabe/docs/accurate/ccECP_Kh/pps/S.pp
 Including file /global/homes/a/aannabe/docs/accurate/ccECP_Kh/basis/aug-cc-pVnZ/S_6z.basis
 }
 
 {rhf
  start,atden
  wf,6,7,2
  occ,1,1,1,0,1,0,0,0
  open,1.3,1.5
  orbital,4202.2
 }
 {multi
  maxiter,40
  start,4202.2
  occ,1,1,1,0,1,0,0,0
  closed,1,0,0,0,0,0,0
  wf,6,4,2;state,1
  wf,6,6,2;state,1
  wf,6,7,2;state,1
  natorb,ci,print
  orbital,5202.2
 }
 {rhf,nitord=1,maxit=0
  start,5202.2
  wf,6,7,2
  occ,1,1,1,0,1,0,0,0
  open,1.3,1.5
 }
 
 scf(i)=energy
 
 _CC_NORM_MAX=2.0
 {uccsd(t)
 maxit,100
 core
 }
 posthf(i)=energy
 
 table,scf,posthf,ekin,pot
 save,6.csv,new
 
 

 Variables initialized (889), CPU time= 0.00 sec
 Commands  initialized (702), CPU time= 0.01 sec, 572 directives.
 Default parameters read. Elapsed time= 0.17 sec

 Checking input...
 Passed
1


                                         ***  PROGRAM SYSTEM MOLPRO  ***
                                       Copyright, TTI GmbH Stuttgart, 2015
                                    Version 2015.1 linked Sep  7 2016 23:09:38


 **********************************************************************************************************************************
 LABEL *   S                                                                             
  64 bit serial version                                                                  DATE: 30-Oct-18          TIME: 13:40:00  
 **********************************************************************************************************************************

 SHA1:             2873118e99aab1bc19f5b6fc1784693c06d15c95
 **********************************************************************************************************************************

 THRESHOLDS:

 ZERO    =  1.00D-12  ONEINT  =  1.00D-12  TWOINT  =  1.00D-12  PREFAC  =  1.00D-14  LOCALI  =  1.00D-09  EORDER  =  1.00D-04
 ENERGY  =  0.00D+00  ETEST   =  0.00D+00  EDENS   =  0.00D+00  THRDEDEF=  1.00D-06  GRADIENT=  1.00D-02  STEP    =  1.00D-03
 ORBITAL =  1.00D-05  CIVEC   =  1.00D-05  COEFF   =  1.00D-04  PRINTCI =  5.00D-02  PUNCHCI =  9.90D+01  OPTGRAD =  3.00D-04
 OPTENERG=  1.00D-06  OPTSTEP =  3.00D-04  THRGRAD =  1.00D-10  COMPRESS=  1.00D-11  VARMIN  =  1.00D-07  VARMAX  =  1.00D-03
 THRDOUB =  0.00D+00  THRDIV  =  1.00D-05  THRRED  =  1.00D-07  THRPSP  =  1.00D+00  THRDC   =  1.00D-10  THRCS   =  1.00D-10
 THRNRM  =  1.00D-08  THREQ   =  0.00D+00  THRDE   =  1.00D+00  THRREF  =  1.00D-05  SPARFAC =  1.00D+00  THRDLP  =  1.00D-07
 THRDIA  =  1.00D-10  THRDLS  =  1.00D-07  THRGPS  =  0.00D+00  THRKEX  =  0.00D+00  THRDIS  =  2.00D-01  THRVAR  =  1.00D-10
 THRLOC  =  1.00D-06  THRGAP  =  1.00D-06  THRLOCT = -1.00D+00  THRGAPT = -1.00D+00  THRORB  =  1.00D-06  THRMLTP =  0.00D+00
 THRCPQCI=  1.00D-10  KEXTA   =  0.00D+00  THRCOARS=  0.00D+00  SYMTOL  =  1.00D-06  GRADTOL =  1.00D-06  THROVL  =  1.00D-08
 THRORTH =  1.00D-08  GRID    =  1.00D-06  GRIDMAX =  1.00D-03  DTMAX   =  0.00D+00  THROCCDE=  1.00D-01  THROCCDE=  1.00D-01



 ZUNIT=ANG
 

Geometry recognized as XYZ


 Variable memory set to  512000000 words,  buffer space   230000 words

 SETTING BASIS          =    USERDEF


 Recomputing integrals since basis changed


 Using spherical harmonics



 PROGRAM * SEWARD (Integral evaluation for generally contracted gaussian basis sets)     Author: Roland Lindh, 1990

 Geometry written to block  1 of record 700

 Orientation using atomic masses  
 Molecule type: Atom
 Symmetry elements: X,Y,Z
 Rotational constants:       0.0000000      0.0000000      0.0000000 GHz  (calculated with average atomic masses)

 Point group  D2h 



 ATOMIC COORDINATES

 NR  ATOM    CHARGE       X              Y              Z

   1  S       6.00    0.000000000    0.000000000    0.000000000


          S   CORE POTENTIAL

          d POTENTIAL

 POWERS             1              3              2
 EXPONENTIALS   6.151144       11.56157       5.390961    
 COEFFICIENTS   6.000000       36.90686      -19.81953    

          s - d POTENTIAL

 POWERS             2              2
 EXPONENTIALS   16.11769       3.608629    
 COEFFICIENTS   15.92575       38.51590    

          p - d POTENTIAL

 POWERS             2              2
 EXPONENTIALS   6.228956       2.978074    
 COEFFICIENTS   8.062221       18.73753    


 BASIS DATA

   Nr Sym  Nuc  Type         Exponents   Contraction coefficients

    1.1 Ag    1  1s         100.482862    -0.001310
                             46.400877     0.004396
                             21.426951    -0.006724
                              9.894516     0.005578
                              4.569080     0.035232
                              2.109905    -0.317381
                              0.974310    -0.014337
                              0.449916     0.535508
                              0.207762     0.505540
                              0.095940     0.152493
    2.1 Ag    1  1s           0.059804     1.000000
    3.1 Ag    1  1s           0.110309     1.000000
    4.1 Ag    1  1s           0.203467     1.000000
    5.1 Ag    1  1s           0.375298     1.000000
    6.1 Ag    1  1s           0.692245     1.000000
    7.1 Ag    1  1s           1.276858     1.000000
    8.1 Ag    1  3d0          0.073492     1.000000
    9.1 Ag    1  3d2+         0.073492     1.000000
   10.1 Ag    1  3d0          0.159223     1.000000
   11.1 Ag    1  3d2+         0.159223     1.000000
   12.1 Ag    1  3d0          0.344962     1.000000
   13.1 Ag    1  3d2+         0.344962     1.000000
   14.1 Ag    1  3d0          0.747373     1.000000
   15.1 Ag    1  3d2+         0.747373     1.000000
   16.1 Ag    1  3d0          1.619209     1.000000
   17.1 Ag    1  3d2+         1.619209     1.000000
   18.1 Ag    1  3d0          3.508073     1.000000
   19.1 Ag    1  3d2+         3.508073     1.000000
   20.1 Ag    1  5g0          0.189560     1.000000
   21.1 Ag    1  5g4+         0.189560     1.000000
   22.1 Ag    1  5g2+         0.189560     1.000000
   23.1 Ag    1  5g0          0.377121     1.000000
   24.1 Ag    1  5g4+         0.377121     1.000000
   25.1 Ag    1  5g2+         0.377121     1.000000
   26.1 Ag    1  5g0          0.750265     1.000000
   27.1 Ag    1  5g4+         0.750265     1.000000
   28.1 Ag    1  5g2+         0.750265     1.000000
   29.1 Ag    1  5g0          1.492616     1.000000
   30.1 Ag    1  5g4+         1.492616     1.000000
   31.1 Ag    1  5g2+         1.492616     1.000000
   32.1 Ag    1  7i6+         0.415043     1.000000
   33.1 Ag    1  7i4+         0.415043     1.000000
   34.1 Ag    1  7i2+         0.415043     1.000000
   35.1 Ag    1  7i0          0.415043     1.000000
   36.1 Ag    1  7i6+         1.037607     1.000000
   37.1 Ag    1  7i4+         1.037607     1.000000
   38.1 Ag    1  7i2+         1.037607     1.000000
   39.1 Ag    1  7i0          1.037607     1.000000
    1.2 B3u   1  2px         43.920200    -0.000358
                             21.015144     0.001542
                             10.055425    -0.007853
                              4.811367     0.011600
                              2.302165    -0.073557
                              1.101551     0.106140
                              0.527075     0.325738
                              0.252197     0.409301
                              0.120673     0.263709
                              0.057740     0.066722
    2.2 B3u   1  2px          0.032465     1.000000
    3.2 B3u   1  2px          0.068647     1.000000
    4.2 B3u   1  2px          0.145154     1.000000
    5.2 B3u   1  2px          0.306929     1.000000
    6.2 B3u   1  2px          0.649001     1.000000
    7.2 B3u   1  2px          1.372313     1.000000
    8.2 B3u   1  4f1+         0.109257     1.000000
    9.2 B3u   1  4f3+         0.109257     1.000000
   10.2 B3u   1  4f1+         0.215011     1.000000
   11.2 B3u   1  4f3+         0.215011     1.000000
   12.2 B3u   1  4f1+         0.423129     1.000000
   13.2 B3u   1  4f3+         0.423129     1.000000
   14.2 B3u   1  4f1+         0.832692     1.000000
   15.2 B3u   1  4f3+         0.832692     1.000000
   16.2 B3u   1  4f1+         1.638688     1.000000
   17.2 B3u   1  4f3+         1.638688     1.000000
   18.2 B3u   1  6h1+         0.293710     1.000000
   19.2 B3u   1  6h3+         0.293710     1.000000
   20.2 B3u   1  6h5+         0.293710     1.000000
   21.2 B3u   1  6h1+         0.614236     1.000000
   22.2 B3u   1  6h3+         0.614236     1.000000
   23.2 B3u   1  6h5+         0.614236     1.000000
   24.2 B3u   1  6h1+         1.284550     1.000000
   25.2 B3u   1  6h3+         1.284550     1.000000
   26.2 B3u   1  6h5+         1.284550     1.000000
    1.3 B2u   1  2py         43.920200    -0.000358
                             21.015144     0.001542
                             10.055425    -0.007853
                              4.811367     0.011600
                              2.302165    -0.073557
                              1.101551     0.106140
                              0.527075     0.325738
                              0.252197     0.409301
                              0.120673     0.263709
                              0.057740     0.066722
    2.3 B2u   1  2py          0.032465     1.000000
    3.3 B2u   1  2py          0.068647     1.000000
    4.3 B2u   1  2py          0.145154     1.000000
    5.3 B2u   1  2py          0.306929     1.000000
    6.3 B2u   1  2py          0.649001     1.000000
    7.3 B2u   1  2py          1.372313     1.000000
    8.3 B2u   1  4f1-         0.109257     1.000000
    9.3 B2u   1  4f3-         0.109257     1.000000
   10.3 B2u   1  4f1-         0.215011     1.000000
   11.3 B2u   1  4f3-         0.215011     1.000000
   12.3 B2u   1  4f1-         0.423129     1.000000
   13.3 B2u   1  4f3-         0.423129     1.000000
   14.3 B2u   1  4f1-         0.832692     1.000000
   15.3 B2u   1  4f3-         0.832692     1.000000
   16.3 B2u   1  4f1-         1.638688     1.000000
   17.3 B2u   1  4f3-         1.638688     1.000000
   18.3 B2u   1  6h1-         0.293710     1.000000
   19.3 B2u   1  6h3-         0.293710     1.000000
   20.3 B2u   1  6h5-         0.293710     1.000000
   21.3 B2u   1  6h1-         0.614236     1.000000
   22.3 B2u   1  6h3-         0.614236     1.000000
   23.3 B2u   1  6h5-         0.614236     1.000000
   24.3 B2u   1  6h1-         1.284550     1.000000
   25.3 B2u   1  6h3-         1.284550     1.000000
   26.3 B2u   1  6h5-         1.284550     1.000000
    1.4 B1g   1  3d2-         0.073492     1.000000
    2.4 B1g   1  3d2-         0.159223     1.000000
    3.4 B1g   1  3d2-         0.344962     1.000000
    4.4 B1g   1  3d2-         0.747373     1.000000
    5.4 B1g   1  3d2-         1.619209     1.000000
    6.4 B1g   1  3d2-         3.508073     1.000000
    7.4 B1g   1  5g2-         0.189560     1.000000
    8.4 B1g   1  5g4-         0.189560     1.000000
    9.4 B1g   1  5g2-         0.377121     1.000000
   10.4 B1g   1  5g4-         0.377121     1.000000
   11.4 B1g   1  5g2-         0.750265     1.000000
   12.4 B1g   1  5g4-         0.750265     1.000000
   13.4 B1g   1  5g2-         1.492616     1.000000
   14.4 B1g   1  5g4-         1.492616     1.000000
   15.4 B1g   1  7i2-         0.415043     1.000000
   16.4 B1g   1  7i6-         0.415043     1.000000
   17.4 B1g   1  7i4-         0.415043     1.000000
   18.4 B1g   1  7i2-         1.037607     1.000000
   19.4 B1g   1  7i6-         1.037607     1.000000
   20.4 B1g   1  7i4-         1.037607     1.000000
    1.5 B1u   1  2pz         43.920200    -0.000358
                             21.015144     0.001542
                             10.055425    -0.007853
                              4.811367     0.011600
                              2.302165    -0.073557
                              1.101551     0.106140
                              0.527075     0.325738
                              0.252197     0.409301
                              0.120673     0.263709
                              0.057740     0.066722
    2.5 B1u   1  2pz          0.032465     1.000000
    3.5 B1u   1  2pz          0.068647     1.000000
    4.5 B1u   1  2pz          0.145154     1.000000
    5.5 B1u   1  2pz          0.306929     1.000000
    6.5 B1u   1  2pz          0.649001     1.000000
    7.5 B1u   1  2pz          1.372313     1.000000
    8.5 B1u   1  4f0          0.109257     1.000000
    9.5 B1u   1  4f2+         0.109257     1.000000
   10.5 B1u   1  4f0          0.215011     1.000000
   11.5 B1u   1  4f2+         0.215011     1.000000
   12.5 B1u   1  4f0          0.423129     1.000000
   13.5 B1u   1  4f2+         0.423129     1.000000
   14.5 B1u   1  4f0          0.832692     1.000000
   15.5 B1u   1  4f2+         0.832692     1.000000
   16.5 B1u   1  4f0          1.638688     1.000000
   17.5 B1u   1  4f2+         1.638688     1.000000
   18.5 B1u   1  6h2+         0.293710     1.000000
   19.5 B1u   1  6h4+         0.293710     1.000000
   20.5 B1u   1  6h0          0.293710     1.000000
   21.5 B1u   1  6h2+         0.614236     1.000000
   22.5 B1u   1  6h4+         0.614236     1.000000
   23.5 B1u   1  6h0          0.614236     1.000000
   24.5 B1u   1  6h2+         1.284550     1.000000
   25.5 B1u   1  6h4+         1.284550     1.000000
   26.5 B1u   1  6h0          1.284550     1.000000
    1.6 B2g   1  3d1+         0.073492     1.000000
    2.6 B2g   1  3d1+         0.159223     1.000000
    3.6 B2g   1  3d1+         0.344962     1.000000
    4.6 B2g   1  3d1+         0.747373     1.000000
    5.6 B2g   1  3d1+         1.619209     1.000000
    6.6 B2g   1  3d1+         3.508073     1.000000
    7.6 B2g   1  5g1+         0.189560     1.000000
    8.6 B2g   1  5g3+         0.189560     1.000000
    9.6 B2g   1  5g1+         0.377121     1.000000
   10.6 B2g   1  5g3+         0.377121     1.000000
   11.6 B2g   1  5g1+         0.750265     1.000000
   12.6 B2g   1  5g3+         0.750265     1.000000
   13.6 B2g   1  5g1+         1.492616     1.000000
   14.6 B2g   1  5g3+         1.492616     1.000000
   15.6 B2g   1  7i5+         0.415043     1.000000
   16.6 B2g   1  7i3+         0.415043     1.000000
   17.6 B2g   1  7i1+         0.415043     1.000000
   18.6 B2g   1  7i5+         1.037607     1.000000
   19.6 B2g   1  7i3+         1.037607     1.000000
   20.6 B2g   1  7i1+         1.037607     1.000000
    1.7 B3g   1  3d1-         0.073492     1.000000
    2.7 B3g   1  3d1-         0.159223     1.000000
    3.7 B3g   1  3d1-         0.344962     1.000000
    4.7 B3g   1  3d1-         0.747373     1.000000
    5.7 B3g   1  3d1-         1.619209     1.000000
    6.7 B3g   1  3d1-         3.508073     1.000000
    7.7 B3g   1  5g1-         0.189560     1.000000
    8.7 B3g   1  5g3-         0.189560     1.000000
    9.7 B3g   1  5g1-         0.377121     1.000000
   10.7 B3g   1  5g3-         0.377121     1.000000
   11.7 B3g   1  5g1-         0.750265     1.000000
   12.7 B3g   1  5g3-         0.750265     1.000000
   13.7 B3g   1  5g1-         1.492616     1.000000
   14.7 B3g   1  5g3-         1.492616     1.000000
   15.7 B3g   1  7i5-         0.415043     1.000000
   16.7 B3g   1  7i3-         0.415043     1.000000
   17.7 B3g   1  7i1-         0.415043     1.000000
   18.7 B3g   1  7i5-         1.037607     1.000000
   19.7 B3g   1  7i3-         1.037607     1.000000
   20.7 B3g   1  7i1-         1.037607     1.000000
    1.8 Au    1  4f2-         0.109257     1.000000
    2.8 Au    1  4f2-         0.215011     1.000000
    3.8 Au    1  4f2-         0.423129     1.000000
    4.8 Au    1  4f2-         0.832692     1.000000
    5.8 Au    1  4f2-         1.638688     1.000000
    6.8 Au    1  6h4-         0.293710     1.000000
    7.8 Au    1  6h2-         0.293710     1.000000
    8.8 Au    1  6h4-         0.614236     1.000000
    9.8 Au    1  6h2-         0.614236     1.000000
   10.8 Au    1  6h4-         1.284550     1.000000
   11.8 Au    1  6h2-         1.284550     1.000000

 NUCLEAR CHARGE:                    6
 NUMBER OF PRIMITIVE AOS:         329
 NUMBER OF SYMMETRY AOS:          224
 NUMBER OF CONTRACTIONS:          188   (  39Ag  +  26B3u +  26B2u +  20B1g +  26B1u +  20B2g +  20B3g +  11Au  )
 NUMBER OF CORE ORBITALS:           0   (   0Ag  +   0B3u +   0B2u +   0B1g +   0B1u +   0B2g +   0B3g +   0Au  )
 NUMBER OF VALENCE ORBITALS:        4   (   1Ag  +   1B3u +   1B2u +   0B1g +   1B1u +   0B2g +   0B3g +   0Au  )


 NUCLEAR REPULSION ENERGY    0.00000000

 EXTRA SYMMETRY OF AOS IN SYMMETRY 1:   1 1 1 1 1 1 1 2 3 2   3 2 3 2 3 2 3 2 3 4   5 6 4 5 6 4 5 6 4 5   6 7 8 910 7 8 910
 EXTRA SYMMETRY OF AOS IN SYMMETRY 2:   1 1 1 1 1 1 1 2 3 2   3 2 3 2 3 2 3 4 5 6   4 5 6 4 5 6
 EXTRA SYMMETRY OF AOS IN SYMMETRY 3:   1 1 1 1 1 1 1 2 3 2   3 2 3 2 3 2 3 4 5 6   4 5 6 4 5 6
 EXTRA SYMMETRY OF AOS IN SYMMETRY 4:   1 1 1 1 1 1 2 3 2 3   2 3 2 3 4 5 6 4 5 6
 EXTRA SYMMETRY OF AOS IN SYMMETRY 5:   1 1 1 1 1 1 1 2 3 2   3 2 3 2 3 2 3 4 5 6   4 5 6 4 5 6
 EXTRA SYMMETRY OF AOS IN SYMMETRY 6:   1 1 1 1 1 1 2 3 2 3   2 3 2 3 4 5 6 4 5 6
 EXTRA SYMMETRY OF AOS IN SYMMETRY 7:   1 1 1 1 1 1 2 3 2 3   2 3 2 3 4 5 6 4 5 6
 EXTRA SYMMETRY OF AOS IN SYMMETRY 8:   1 1 1 1 1 2 3 2 3 2   3

 Eigenvalues of metric

         1 0.778E-04 0.513E-03 0.451E-02 0.173E-01 0.173E-01 0.362E-01 0.596E-01 0.596E-01
         2 0.137E-03 0.580E-02 0.215E-01 0.215E-01 0.342E-01 0.125E+00 0.125E+00 0.157E+00
         3 0.137E-03 0.580E-02 0.215E-01 0.215E-01 0.342E-01 0.125E+00 0.125E+00 0.157E+00
         4 0.173E-01 0.596E-01 0.596E-01 0.764E-01 0.270E+00 0.329E+00 0.329E+00 0.533E+00
         5 0.137E-03 0.580E-02 0.215E-01 0.215E-01 0.342E-01 0.125E+00 0.125E+00 0.157E+00
         6 0.173E-01 0.596E-01 0.596E-01 0.764E-01 0.270E+00 0.329E+00 0.329E+00 0.533E+00
         7 0.173E-01 0.596E-01 0.596E-01 0.764E-01 0.270E+00 0.329E+00 0.329E+00 0.533E+00
         8 0.215E-01 0.125E+00 0.175E+00 0.175E+00 0.502E+00 0.804E+00 0.804E+00 0.145E+01


 Contracted 2-electron integrals neglected if value below      1.0D-12
 AO integral compression algorithm  1   Integral accuracy      1.0D-12

     121.111 MB (compressed) written to integral file ( 47.6%)


 NUMBER OF SORTED TWO-ELECTRON INTEGRALS:   20212815.     BUFFER LENGTH:  32768
 NUMBER OF SEGMENTS:   2  SEGMENT LENGTH:   15998787      RECORD LENGTH: 524288

 Memory used in sort:      16.56 MW

 SORT1 READ    31710950. AND WROTE    13213985. INTEGRALS IN     39 RECORDS. CPU TIME:     1.18 SEC, REAL TIME:     1.54 SEC
 SORT2 READ    13213985. AND WROTE    20212815. INTEGRALS IN    462 RECORDS. CPU TIME:     0.67 SEC, REAL TIME:     1.22 SEC

 FILE SIZES:   FILE 1:   141.0 MBYTE,  FILE 4:   163.6 MBYTE,   TOTAL:    304.6 MBYTE

 OPERATOR DM      FOR CENTER  0  COORDINATES:    0.000000    0.000000    0.000000
 OPERATOR EKIN    FOR CENTER  0  COORDINATES:    0.000000    0.000000    0.000000
 OPERATOR POT     FOR CENTER  0  COORDINATES:    0.000000    0.000000    0.000000


 **********************************************************************************************************************************
 DATASETS  * FILE   NREC   LENGTH (MB)   RECORD NAMES
              1      20       97.95       500      610      700      900      950      970     1000      129      960     1100   
                                          VAR    BASINP    GEOM    SYMINP    ZMAT    AOBASIS   BASIS     P2S    ABASIS      S 
                                         1400     1410     1420     1200     1210     1080     1600     1650     1300     1700   
                                         EKIN       V       ECP      H0       H01     AOSYM     SMH    MOLCAS    ERIS     OPER   

 PROGRAMS   *        TOTAL       INT
 CPU TIMES  *         8.76      8.63
 REAL TIME  *        15.93 SEC
 DISK USED  *       304.96 MB      
 **********************************************************************************************************************************


 PROGRAM * RHF-SCF (OPEN SHELL)       Authors: W. Meyer, H.-J. Werner


 NUMBER OF ELECTRONS:       4+    2-    SPACE SYMMETRY=7    SPIN SYMMETRY: Triplet 
 CONVERGENCE THRESHOLDS:    1.00E-05 (Density)    1.00E-07 (Energy)
 MAX. NUMBER OF ITERATIONS:       60
 INTERPOLATION TYPE:            DIIS
 INTERPOLATION STEPS:              2 (START)      1 (STEP)
 LEVEL SHIFTS:                 -0.60 (CLOSED) -0.30 (OPEN) 


 Singly occupied orbitals:      1.3       1.5

   Atom=S  basis=ECP10MWB_GUESS    lmin=0  lmax=1

 Orbital guess generated from atomic densities. Full valence occupancy:    1   1   1   0   1   0   0   0


 Molecular orbital dump at record        4202.2

 ITERATION    DDIFF          GRAD             ENERGY        2-EL.EN.            DIPOLE MOMENTS         DIIS   ORB.
    1      0.000D+00      0.000D+00        -9.91181959     12.493857    0.00000    0.00000    0.00000    0    start
    2      0.000D+00      0.493D-02        -9.91879556     12.697891    0.00000    0.00000    0.00000    1    diag,B
    3      0.499D-02      0.148D-02        -9.91988153     12.771533    0.00000    0.00000    0.00000    2    diag,B
    4      0.122D-02      0.541D-03        -9.92003935     12.790874    0.00000    0.00000    0.00000    3    diag,B
    5      0.798D-03      0.114D-03        -9.92004553     12.792313    0.00000    0.00000    0.00000    4    diag,B
    6      0.190D-03      0.245D-04        -9.92004578     12.792404    0.00000    0.00000    0.00000    5    diag,B
    7      0.731D-04      0.721D-05        -9.92004581     12.792332    0.00000    0.00000    0.00000    6    fixocc
    8      0.291D-04      0.206D-05        -9.92004581     12.792357    0.00000    0.00000    0.00000    7    diag,B
    9      0.100D-04      0.450D-06        -9.92004581     12.792356    0.00000    0.00000    0.00000    8    diag,B
   10      0.172D-05      0.192D-06        -9.92004581     12.792358    0.00000    0.00000    0.00000    0    orth

 Final alpha occupancy:   1   1   1   0   1   0   0   0
 Final beta  occupancy:   1   1   0   0   0   0   0   0

 !RHF STATE 1.7 Energy                 -9.920045807740
 Nuclear energy                         0.00000000
 One-electron energy                  -16.31622496
 Two-electron energy                    6.39617916
 Virial quotient                       -2.68121693
 !RHF STATE 1.7 Dipole moment           0.00000000     0.00000000     0.00000000
 Dipole moment /Debye                   0.00000000     0.00000000     0.00000000
 

 !RHF expec          <1.7|EKIN|1.7>     3.699829611732
 
 !RHF expec           <1.7|POT|1.7>    -3.636207487531

 ELECTRON ORBITALS
 =================


   Orb  Occ    Energy  Couls-En    Coefficients

                                   1 1s      1 1s      1 1s      1 1s      1 1s      1 1s      1 1s      1 3d0     1 3d2+    1 3d0  
                                   1 3d2+    1 3d0     1 3d2+    1 3d0     1 3d2+    1 3d0     1 3d2+    1 3d0     1 3d2+    1 5g0  
                                   1 5g4+    1 5g2+    1 5g0     1 5g4+    1 5g2+    1 5g0     1 5g4+    1 5g2+    1 5g0     1 5g4+ 
                                   1 5g2+    1 7i6+    1 7i4+    1 7i2+    1 7i0     1 7i6+    1 7i4+    1 7i2+    1 7i0  

   1.1   2    -0.8839   -3.9816  0.930919  0.005717 -0.008963  0.068766 -0.019784  0.061473 -0.044184 -0.000658  0.001139 -0.002301
                                 0.003986 -0.000668  0.001156  0.000081 -0.000140 -0.000429  0.000742 -0.000127  0.000220 -0.000014
                                -0.000027  0.000020 -0.000003 -0.000006  0.000005  0.000001  0.000002 -0.000002 -0.000000 -0.000001
                                 0.000001 -0.000001  0.000001 -0.000000  0.000000 -0.000000  0.000000 -0.000000  0.000000

                                   1 2px     1 2px     1 2px     1 2px     1 2px     1 2px     1 2px     1 4f1+    1 4f3+    1 4f1+ 
                                   1 4f3+    1 4f1+    1 4f3+    1 4f1+    1 4f3+    1 4f1+    1 4f3+    1 6h1+    1 6h3+    1 6h5+ 
                                   1 6h1+    1 6h3+    1 6h5+    1 6h1+    1 6h3+    1 6h5+ 

   1.2   2    -0.3961   -2.9079  1.055907  0.004173  0.013484 -0.012573 -0.038642 -0.023842  0.003351  0.001029 -0.001329  0.002129
                                -0.002749  0.002851 -0.003681  0.001348 -0.001740  0.000330 -0.000426  0.000022 -0.000024  0.000032
                                 0.000016 -0.000017  0.000023  0.000005 -0.000005  0.000007

                                   1 2py     1 2py     1 2py     1 2py     1 2py     1 2py     1 2py     1 4f1-    1 4f3-    1 4f1- 
                                   1 4f3-    1 4f1-    1 4f3-    1 4f1-    1 4f3-    1 4f1-    1 4f3-    1 6h1-    1 6h3-    1 6h5- 
                                   1 6h1-    1 6h3-    1 6h5-    1 6h1-    1 6h3-    1 6h5- 

   1.3   +    -0.4819   -3.0306  1.078110 -0.002128 -0.028304 -0.032511 -0.015840 -0.015865 -0.001069  0.000495 -0.001918  0.001418
                                -0.005490  0.002137 -0.008277  0.001075 -0.004163  0.000247 -0.000956  0.000017 -0.000055  0.000124
                                 0.000017 -0.000055  0.000124  0.000006 -0.000018  0.000040

                                   1 2pz     1 2pz     1 2pz     1 2pz     1 2pz     1 2pz     1 2pz     1 4f0     1 4f2+    1 4f0  
                                   1 4f2+    1 4f0     1 4f2+    1 4f0     1 4f2+    1 4f0     1 4f2+    1 6h2+    1 6h4+    1 6h0  
                                   1 6h2+    1 6h4+    1 6h0     1 6h2+    1 6h4+    1 6h0  

   1.5   +    -0.4819   -3.0306  1.078110 -0.002128 -0.028304 -0.032511 -0.015840 -0.015865 -0.001069  0.001213 -0.001566  0.003472
                                -0.004483  0.005235 -0.006759  0.002633 -0.003399  0.000605 -0.000781 -0.000090  0.000078  0.000066
                                -0.000090  0.000078  0.000066 -0.000029  0.000025  0.000021

 HOMO      1.2    -0.396118 =     -10.7789eV
 LUMO      2.3     0.070354 =       1.9144eV
 LUMO-HOMO         0.466472 =      12.6934eV


 **********************************************************************************************************************************
 DATASETS  * FILE   NREC   LENGTH (MB)   RECORD NAMES
              1      20       97.95       500      610      700      900      950      970     1000      129      960     1100   
                                          VAR    BASINP    GEOM    SYMINP    ZMAT    AOBASIS   BASIS     P2S    ABASIS      S 
                                         1400     1410     1420     1200     1210     1080     1600     1650     1300     1700   
                                         EKIN       V       ECP      H0       H01     AOSYM     SMH    MOLCAS    ERIS     OPER   

              2       4        2.92       700     1000      520     4202   
                                         GEOM     BASIS   MCVARS     RHF  

 PROGRAMS   *        TOTAL       RHF       INT
 CPU TIMES  *         9.52      0.76      8.63
 REAL TIME  *        16.95 SEC
 DISK USED  *       304.96 MB      
 **********************************************************************************************************************************


 PROGRAM * MULTI (Direct Multiconfiguration SCF)       Authors: P.J. Knowles, H.-J. Werner (1984)     S.T. Elbert (1988)


 Number of closed-shell orbitals:   1 (   1   0   0   0   0   0   0   0 )
 Number of active  orbitals:        3 (   0   1   1   0   1   0   0   0 )
 Number of external orbitals:     184 (  38  25  25  20  25  20  20  11 )

 State symmetry 1

 Number of electrons:     4    Spin symmetry=Triplet   Space symmetry=4
 Number of states:        1
 Number of CSFs:          1   (1 determinants, 3 intermediate states)

 State symmetry 2

 Number of electrons:     4    Spin symmetry=Triplet   Space symmetry=6
 Number of states:        1
 Number of CSFs:          1   (1 determinants, 3 intermediate states)

 State symmetry 3

 Number of electrons:     4    Spin symmetry=Triplet   Space symmetry=7
 Number of states:        1
 Number of CSFs:          1   (1 determinants, 3 intermediate states)

 Iteration controls:
             1  2  3  4  5  6  7  8  9 10 11 12 13 14 15 16 17 18 19 20 21 22 23 24 25 26 27 28 29 30 31 32 33 34 35 36 37 38 39
 DIAGCI      T  T  T  T  T  T  T  T  T  T  T  T  T  T  T  T  T  T  T  T  T  T  T  T  T  T  T  T  T  T  T  T  T  T  T  T  T  T  T
 WERNER      T  T  T  T  T  T  T  T  T  T  T  T  T  T  T  T  T  T  T  T  T  T  T  T  T  T  T  T  T  T  T  T  T  T  T  T  T  T  T
 INTERNAL    F  T  T  T  T  T  T  T  T  T  T  T  T  T  T  T  T  T  T  T  T  T  T  T  T  T  T  T  T  T  T  T  T  T  T  T  T  T  T

 Molecular orbitals read from record     4202.2  Type=RHF/CANONICAL (state 1.7)
 *** IN SYMMETRY 1 ORBITAL  1 SYMMETRY CONTAMINATION OF 0.102D-01 HAS BEEN REMOVED

 EXTRA SYMMETRY OF MOS IN SYMMETRY 1:   1 1 2 3 1 2 3 4 5 6   2 3 1 4 5 6 2 3 9 8   710 1 4 5 6 2 3 1 9   8 710 4 5 6 2 3 1
 *** IN SYMMETRY 2 ORBITAL  1 SYMMETRY CONTAMINATION OF 0.152D-01 HAS BEEN REMOVED
 EXTRA SYMMETRY OF MOS IN SYMMETRY 2:   1 1 1 2 3 1 2 3 5 6   4 2 3 1 5 6 4 2 3 1   2 3 5 6 4 1
 *** IN SYMMETRY 3 ORBITAL  1 SYMMETRY CONTAMINATION OF 0.222D-01 HAS BEEN REMOVED
 EXTRA SYMMETRY OF MOS IN SYMMETRY 3:   1 1 1 2 3 1 2 3 4 5   6 2 1 1 4 5 6 2 3 1   2 3 4 5 6 3
 EXTRA SYMMETRY OF MOS IN SYMMETRY 4:   1 1 2 3 1 2 3 1 4 6   5 2 3 1 4 6 5 2 3 1
 *** IN SYMMETRY 5 ORBITAL  1 SYMMETRY CONTAMINATION OF 0.255D-01 HAS BEEN REMOVED
 EXTRA SYMMETRY OF MOS IN SYMMETRY 5:   1 1 1 2 3 1 2 3 6 5   4 2 1 1 6 5 4 2 3 1   3 3 6 5 4 2
 EXTRA SYMMETRY OF MOS IN SYMMETRY 6:   1 1 3 2 1 3 2 1 5 4   6 3 2 1 5 4 6 3 2 1
 EXTRA SYMMETRY OF MOS IN SYMMETRY 7:   1 1 2 3 1 2 3 1 6 5   4 2 3 1 6 5 4 2 3 1
 EXTRA SYMMETRY OF MOS IN SYMMETRY 8:   1 1 3 2 1 3 2 1 1 3   2

 Wavefunction dump at record             5202.2

 Convergence thresholds  0.10E-01 (gradient)  0.10E-05 (energy)  0.10E-02 (step length)

 Weight factors for state symmetry  1:    0.33333
 Weight factors for state symmetry  2:    0.33333
 Weight factors for state symmetry  3:    0.33333

 Number of orbital rotations:      113   (     0 Core/Active     38 Core/Virtual   0 Active/Active     75 Active/Virtual)
 Total number of variables:        116


 ITER. MIC  NCI  NEG     ENERGY(VAR)     ENERGY(PROJ)   ENERGY CHANGE     GRAD(0)  GRAD(ORB)   GRAD(CI)     STEP       TIME

   1   23   12    0      -9.91652727      -9.91762075   -0.00109348    0.03101957 0.00000000 0.00000000  0.41D-01      0.21
   2   13   12    0      -9.91762397      -9.91762400   -0.00000003    0.00018790 0.00000000 0.00000000  0.20D-03      0.39
   3   14   12    0      -9.91762400      -9.91762400    0.00000000    0.00000001 0.00000000 0.00000000  0.73D-08      0.55

 ** WVFN ****  CONVERGENCE REACHED, FINAL GRADIENT:  0.88D-13



 Results for state 1.4
 =====================

 !MCSCF STATE 1.4 Energy               -9.917624002770
 Nuclear energy                         0.00000000
 Kinetic energy                         3.69785151
 One electron energy                  -16.31967976
 Two electron energy                    6.40205575
 Virial ratio                           3.68199629

 !MCSCF STATE 1.4 Dipole moment         0.00000000     0.00000000     0.00000000
 Dipole moment /Debye                   0.00000000     0.00000000     0.00000000



 Results for state 1.6
 =====================

 !MCSCF STATE 1.6 Energy               -9.917624002770
 Nuclear energy                         0.00000000
 Kinetic energy                         3.69785151
 One electron energy                  -16.31967976
 Two electron energy                    6.40205575
 Virial ratio                           3.68199629

 !MCSCF STATE 1.6 Dipole moment         0.00000000     0.00000000     0.00000000
 Dipole moment /Debye                   0.00000000     0.00000000     0.00000000



 Results for state 1.7
 =====================

 !MCSCF STATE 1.7 Energy               -9.917624002770
 Nuclear energy                         0.00000000
 Kinetic energy                         3.69785151
 One electron energy                  -16.31967976
 Two electron energy                    6.40205575
 Virial ratio                           3.68199629

 !MCSCF STATE 1.7 Dipole moment         0.00000000     0.00000000     0.00000000
 Dipole moment /Debye                   0.00000000     0.00000000     0.00000000

 State-averaged charge density matrix saved on record  5202.2 (density set 1)

 !MCSCF expec        <1.4|EKIN|1.4>     3.697851505134
 !MCSCF expec        <1.6|EKIN|1.6>     3.697851505134
 !MCSCF expec        <1.7|EKIN|1.7>     3.697851505134

 !MCSCF expec         <1.4|POT|1.4>    -3.636443167157
 !MCSCF expec         <1.6|POT|1.6>    -3.636443167157
 !MCSCF expec         <1.7|POT|1.7>    -3.636443167157


 NATURAL ORBITALS (state averaged)
 =================================

   Orb     Occ        Energy       Coefficients

                                   1 1s      1 1s      1 1s      1 1s      1 1s      1 1s      1 1s      1 3d0     1 3d2+    1 3d0  
                                   1 3d2+    1 3d0     1 3d2+    1 3d0     1 3d2+    1 3d0     1 3d2+    1 3d0     1 3d2+    1 5g0  
                                   1 5g4+    1 5g2+    1 5g0     1 5g4+    1 5g2+    1 5g0     1 5g4+    1 5g2+    1 5g0     1 5g4+ 
                                   1 5g2+    1 7i6+    1 7i4+    1 7i2+    1 7i0     1 7i6+    1 7i4+    1 7i2+    1 7i0  

   1.1  2.00000    -0.883631     0.930902  0.005601 -0.008579  0.068716 -0.020027  0.061523 -0.044157  0.000000  0.000000  0.000000
                                 0.000000  0.000000  0.000000  0.000000  0.000000  0.000000  0.000000  0.000000  0.000000  0.000000
                                 0.000000  0.000000  0.000000  0.000000  0.000000  0.000000  0.000000  0.000000  0.000000  0.000000
                                 0.000000  0.000000  0.000000  0.000000  0.000000  0.000000  0.000000  0.000000  0.000000

                                   1 2px     1 2px     1 2px     1 2px     1 2px     1 2px     1 2px     1 4f1+    1 4f3+    1 4f1+ 
                                   1 4f3+    1 4f1+    1 4f3+    1 4f1+    1 4f3+    1 4f1+    1 4f3+    1 6h1+    1 6h3+    1 6h5+ 
                                   1 6h1+    1 6h3+    1 6h5+    1 6h1+    1 6h3+    1 6h5+ 

   1.2  1.33333    -0.283223     1.067685  0.000304 -0.008001 -0.020959 -0.027988 -0.020341  0.001329  0.000000  0.000000  0.000000
                                 0.000000  0.000000  0.000000  0.000000  0.000000  0.000000  0.000000  0.000000  0.000000  0.000000
                                 0.000000  0.000000  0.000000  0.000000  0.000000  0.000000

                                   1 2py     1 2py     1 2py     1 2py     1 2py     1 2py     1 2py     1 4f1-    1 4f3-    1 4f1- 
                                   1 4f3-    1 4f1-    1 4f3-    1 4f1-    1 4f3-    1 4f1-    1 4f3-    1 6h1-    1 6h3-    1 6h5- 
                                   1 6h1-    1 6h3-    1 6h5-    1 6h1-    1 6h3-    1 6h5- 

   1.3  1.33333    -0.283223     1.067685  0.000304 -0.008001 -0.020959 -0.027988 -0.020341  0.001329  0.000000  0.000000  0.000000
                                 0.000000  0.000000  0.000000  0.000000  0.000000  0.000000  0.000000  0.000000  0.000000  0.000000
                                 0.000000  0.000000  0.000000  0.000000  0.000000  0.000000

                                   1 2pz     1 2pz     1 2pz     1 2pz     1 2pz     1 2pz     1 2pz     1 4f0     1 4f2+    1 4f0  
                                   1 4f2+    1 4f0     1 4f2+    1 4f0     1 4f2+    1 4f0     1 4f2+    1 6h2+    1 6h4+    1 6h0  
                                   1 6h2+    1 6h4+    1 6h0     1 6h2+    1 6h4+    1 6h0  

   1.5  1.33333    -0.283223     1.067685  0.000304 -0.008001 -0.020959 -0.027988 -0.020341  0.001329  0.000000  0.000000  0.000000
                                 0.000000  0.000000  0.000000  0.000000  0.000000  0.000000  0.000000  0.000000  0.000000  0.000000
                                 0.000000  0.000000  0.000000  0.000000  0.000000  0.000000
 

 EXTRA SYMMETRY OF MOS IN SYMMETRY 1:   1 1 2 3 1 2 3 6 5 4   2 3 1 6 4 5 2 3 810   9 7 1 4 6 5 2 3 1 8  10 9 7 4 6 5 2 3 1
 EXTRA SYMMETRY OF MOS IN SYMMETRY 2:   1 1 1 3 2 1 3 2 5 4   6 3 2 1 4 5 6 3 2 1   2 3 4 5 6 1
 EXTRA SYMMETRY OF MOS IN SYMMETRY 3:   1 1 1 3 2 1 3 2 5 4   6 3 2 1 4 5 6 3 2 1   2 3 4 5 6 1
 EXTRA SYMMETRY OF MOS IN SYMMETRY 4:   1 1 2 3 1 2 3 1 6 4   5 2 3 1 6 4 5 2 3 1
 EXTRA SYMMETRY OF MOS IN SYMMETRY 5:   1 1 1 3 2 1 3 2 4 5   6 3 2 1 4 5 6 3 2 1   3 2 4 6 5 1
 EXTRA SYMMETRY OF MOS IN SYMMETRY 6:   1 1 3 2 1 3 2 1 6 4   5 3 2 1 4 5 6 3 2 1
 EXTRA SYMMETRY OF MOS IN SYMMETRY 7:   1 1 3 2 1 3 2 1 6 4   5 3 2 1 4 5 6 3 2 1

 Natural orbital dump (state averaged) at molpro section  5202.2    (Orbital set 2)


 CI vector for state symmetry 1
 ==============================

 a a 2           1.0000000

 TOTAL ENERGIES                        -9.91762400

 CI vector for state symmetry 2
 ==============================

 a 2 a           1.0000000

 TOTAL ENERGIES                        -9.91762400

 CI vector for state symmetry 3
 ==============================

 2 a a           1.0000000

 TOTAL ENERGIES                        -9.91762400



 **********************************************************************************************************************************
 DATASETS  * FILE   NREC   LENGTH (MB)   RECORD NAMES
              1      21       98.59       500      610      700      900      950      970     1000      129      960     1100   
                                          VAR    BASINP    GEOM    SYMINP    ZMAT    AOBASIS   BASIS     P2S    ABASIS      S 
                                         1400     1410     1420     1200     1210     1080     1600     1650     1300     1700   
                                         EKIN       V       ECP      H0       H01     AOSYM     SMH    MOLCAS    ERIS     OPER   
                                         1380   
                                         JKOP   

              2       5        5.60       700     1000      520     4202     5202   
                                         GEOM     BASIS   MCVARS     RHF     MCSCF   

 PROGRAMS   *        TOTAL     MULTI       RHF       INT
 CPU TIMES  *        10.29      0.78      0.76      8.63
 REAL TIME  *        18.96 SEC
 DISK USED  *       304.96 MB      
 **********************************************************************************************************************************


 PROGRAM * RHF-SCF (OPEN SHELL)       Authors: W. Meyer, H.-J. Werner


 NUMBER OF ELECTRONS:       4+    2-    SPACE SYMMETRY=7    SPIN SYMMETRY: Triplet 
 CONVERGENCE THRESHOLDS:    1.00E-05 (Density)    1.00E-07 (Energy)
 MAX. NUMBER OF ITERATIONS:        0
 INTERPOLATION TYPE:            DIIS
 INTERPOLATION STEPS:              2 (START)      1 (STEP)
 LEVEL SHIFTS:                 -0.60 (CLOSED) -0.30 (OPEN) 


 Singly occupied orbitals:      1.3       1.5
 Molecular orbitals read from record     5202.2  Type=MCSCF/NATURAL (state averaged)

 Molecular orbital dump at record        2101.2

 ITERATION    DDIFF          GRAD             ENERGY        2-EL.EN.            DIPOLE MOMENTS         DIIS   ORB.
    1      0.000D+00      0.000D+00        -9.91762400     12.804112    0.00000    0.00000    0.00000    0    start

 Final alpha occupancy:   1   1   1   0   1   0   0   0
 Final beta  occupancy:   1   1   0   0   0   0   0   0

 !RHF STATE 1.7 Energy                 -9.917624002770
 Nuclear energy                         0.00000000
 One-electron energy                  -16.31967976
 Two-electron energy                    6.40205575
 Virial quotient                       -2.68199629
 !RHF STATE 1.7 Dipole moment           0.00000000     0.00000000     0.00000000
 Dipole moment /Debye                   0.00000000     0.00000000     0.00000000
 

 !RHF expec          <1.7|EKIN|1.7>     3.697851505134
 
 !RHF expec           <1.7|POT|1.7>    -3.636443167157

 ELECTRON ORBITALS
 =================


   Orb  Occ    Energy  Couls-En    Coefficients

                                   1 1s      1 1s      1 1s      1 1s      1 1s      1 1s      1 1s      1 3d0     1 3d2+    1 3d0  
                                   1 3d2+    1 3d0     1 3d2+    1 3d0     1 3d2+    1 3d0     1 3d2+    1 3d0     1 3d2+    1 5g0  
                                   1 5g4+    1 5g2+    1 5g0     1 5g4+    1 5g2+    1 5g0     1 5g4+    1 5g2+    1 5g0     1 5g4+ 
                                   1 5g2+    1 7i6+    1 7i4+    1 7i2+    1 7i0     1 7i6+    1 7i4+    1 7i2+    1 7i0  

   1.1   2    -0.8836   -3.9813  0.930902  0.005601 -0.008579  0.068716 -0.020027  0.061523 -0.044157  0.000000  0.000000  0.000000
                                 0.000000  0.000000  0.000000  0.000000  0.000000  0.000000  0.000000  0.000000  0.000000  0.000000
                                 0.000000  0.000000  0.000000  0.000000  0.000000  0.000000  0.000000  0.000000  0.000000  0.000000
                                 0.000000  0.000000  0.000000  0.000000  0.000000  0.000000  0.000000  0.000000  0.000000

                                   1 2px     1 2px     1 2px     1 2px     1 2px     1 2px     1 2px     1 4f1+    1 4f3+    1 4f1+ 
                                   1 4f3+    1 4f1+    1 4f3+    1 4f1+    1 4f3+    1 4f1+    1 4f3+    1 6h1+    1 6h3+    1 6h5+ 
                                   1 6h1+    1 6h3+    1 6h5+    1 6h1+    1 6h3+    1 6h5+ 

   1.2   2    -0.2832   -2.8143  1.067685  0.000304 -0.008001 -0.020959 -0.027988 -0.020341  0.001329  0.000000  0.000000  0.000000
                                 0.000000  0.000000  0.000000  0.000000  0.000000  0.000000  0.000000  0.000000  0.000000  0.000000
                                 0.000000  0.000000  0.000000  0.000000  0.000000  0.000000

                                   1 2py     1 2py     1 2py     1 2py     1 2py     1 2py     1 2py     1 4f1-    1 4f3-    1 4f1- 
                                   1 4f3-    1 4f1-    1 4f3-    1 4f1-    1 4f3-    1 4f1-    1 4f3-    1 6h1-    1 6h3-    1 6h5- 
                                   1 6h1-    1 6h3-    1 6h5-    1 6h1-    1 6h3-    1 6h5- 

   1.3   +    -0.2832   -2.8143  1.067685  0.000304 -0.008001 -0.020959 -0.027988 -0.020341  0.001329  0.000000  0.000000  0.000000
                                 0.000000  0.000000  0.000000  0.000000  0.000000  0.000000  0.000000  0.000000  0.000000  0.000000
                                 0.000000  0.000000  0.000000  0.000000  0.000000  0.000000

                                   1 2pz     1 2pz     1 2pz     1 2pz     1 2pz     1 2pz     1 2pz     1 4f0     1 4f2+    1 4f0  
                                   1 4f2+    1 4f0     1 4f2+    1 4f0     1 4f2+    1 4f0     1 4f2+    1 6h2+    1 6h4+    1 6h0  
                                   1 6h2+    1 6h4+    1 6h0     1 6h2+    1 6h4+    1 6h0  

   1.5   +    -0.2832   -2.8143  1.067685  0.000304 -0.008001 -0.020959 -0.027988 -0.020341  0.001329  0.000000  0.000000  0.000000
                                 0.000000  0.000000  0.000000  0.000000  0.000000  0.000000  0.000000  0.000000  0.000000  0.000000
                                 0.000000  0.000000  0.000000  0.000000  0.000000  0.000000

 HOMO      1.2    -0.283223 =      -7.7069eV
 LUMO      2.2     0.073959 =       2.0125eV
 LUMO-HOMO         0.357182 =       9.7194eV


 **********************************************************************************************************************************
 DATASETS  * FILE   NREC   LENGTH (MB)   RECORD NAMES
              1      21       98.59       500      610      700      900      950      970     1000      129      960     1100   
                                          VAR    BASINP    GEOM    SYMINP    ZMAT    AOBASIS   BASIS     P2S    ABASIS      S 
                                         1400     1410     1420     1200     1210     1080     1600     1650     1300     1700   
                                         EKIN       V       ECP      H0       H01     AOSYM     SMH    MOLCAS    ERIS     OPER   
                                         1380   
                                         JKOP   

              2       6        8.31       700     1000      520     4202     5202     2101   
                                         GEOM     BASIS   MCVARS     RHF     MCSCF     RHF  

 PROGRAMS   *        TOTAL       RHF     MULTI       RHF       INT
 CPU TIMES  *        10.37      0.07      0.78      0.76      8.63
 REAL TIME  *        19.14 SEC
 DISK USED  *       304.96 MB      
 **********************************************************************************************************************************
 SETTING SCF(I)         =        -9.91762400  AU                              
 SETTING _CC_NORM_MAX   =         2.00000000                                  


 PROGRAM * CCSD (Unrestricted open-shell coupled cluster)     Authors: C. Hampel, H.-J. Werner, 1991, M. Deegan, P.J. Knowles, 1992


 Convergence thresholds:  THRVAR = 1.00D-08  THRDEN = 1.00D-06

 CCSD(T)     terms to be evaluated (factor= 1.000)


 Number of closed-shell orbitals:   2 (   1   1   0   0   0   0   0   0 )
 Number of active  orbitals:        2 (   0   0   1   0   1   0   0   0 )
 Number of external orbitals:     184 (  38  25  25  20  25  20  20  11 )

 Memory could be reduced to 8.72 Mwords without degradation in triples

 Number of N-1 electron functions:               6
 Number of N-2 electron functions:              15
 Number of singly external CSFs:               178
 Number of doubly external CSFs:             50799
 Total number of CSFs:                       50977

 Molecular orbitals read from record     2101.2  Type=RHF/CANONICAL (state 1.7)

 Integral transformation finished. Total CPU:   0.26 sec, npass=  1  Memory used:   1.35 MW

 Starting RMP2 calculation

 ITER.      SQ.NORM     CORR.ENERGY   TOTAL ENERGY   ENERGY CHANGE        DEN1      VAR(S)    VAR(P)  DIIS     TIME
   1      1.06032258    -0.15108877   -10.06871277    -0.15108877    -0.00095597  0.49D-04  0.42D-03  1  1     0.27
   2      1.06151384    -0.15215532   -10.06977932    -0.00106656    -0.00000193  0.39D-06  0.72D-06  2  2     0.27
   3      1.06154451    -0.15216892   -10.06979292    -0.00001360    -0.00000001  0.70D-08  0.17D-08  3  3     0.28
   4      1.06154570    -0.15216922   -10.06979323    -0.00000030    -0.00000000  0.11D-09  0.49D-11  4  4     0.28

 Norm of t1 vector:      0.06388726      S-energy:    -0.00541590      T1 diagnostic:  0.01133698
 Norm of t2 vector:      0.23971675      P-energy:    -0.14675333
                                         Alpha-Beta:  -0.11636369
                                         Alpha-Alpha: -0.02657411
                                         Beta-Beta:   -0.00381552

 Spin contamination <S**2-Sz**2-Sz>     0.00592698
  Reference energy                     -9.917624002770
  RHF-RMP2 correlation energy          -0.152169224313
 !RHF-RMP2 energy                     -10.069793227083

 Starting UCCSD calculation

 ITER.      SQ.NORM     CORR.ENERGY   TOTAL ENERGY   ENERGY CHANGE        DEN1      VAR(S)    VAR(P)  DIIS     TIME
   1      1.07233850    -0.16146426   -10.07908826    -0.16146426    -0.00614223  0.43D-03  0.22D-02  1  1     0.64
   2      1.08184150    -0.16857111   -10.08619511    -0.00710685    -0.00021820  0.21D-04  0.79D-04  2  2     1.01
   3      1.08357334    -0.16936920   -10.08699320    -0.00079809    -0.00001786  0.23D-05  0.71D-05  3  3     1.37
   4      1.08402345    -0.16950685   -10.08713085    -0.00013765    -0.00000148  0.15D-06  0.68D-06  4  4     1.74
   5      1.08413938    -0.16953656   -10.08716056    -0.00002970    -0.00000013  0.92D-08  0.73D-07  5  5     2.10
   6      1.08415322    -0.16953657   -10.08716057    -0.00000001    -0.00000002  0.12D-08  0.13D-07  6  6     2.46
   7      1.08415789    -0.16953713   -10.08716113    -0.00000056    -0.00000000  0.28D-09  0.17D-08  6  1     2.81

 Norm of t1 vector:      0.07900792      S-energy:    -0.00617000      T1 diagnostic:  0.01662446
                                                                       D1 diagnostic:  0.02471804
 Norm of t2 vector:      0.27913373      P-energy:    -0.16336713
                                         Alpha-Beta:  -0.13275164
                                         Alpha-Alpha: -0.02706665
                                         Beta-Beta:   -0.00354883

 Spin contamination <S**2-Sz**2-Sz>     0.00369254

 Memory could be reduced to 8.87 Mwords without degradation in triples
 

 RESULTS
 =======

  Reference energy                     -9.917624002770
  UCCSD singles energy                 -0.006170000287
  UCCSD pair energy                    -0.163367128592
  UCCSD correlation energy             -0.169537128879
  Triples (T) contribution             -0.007128380693
  Total correlation energy             -0.176665509572
 
  RHF-UCCSD energy                    -10.087161131649
  RHF-UCCSD[T] energy                 -10.094256362446
  RHF-UCCSD-T energy                  -10.094272946918
 !RHF-UCCSD(T) energy                 -10.094289512342

 Program statistics:

 Available memory in ccsd:               511999732
 Min. memory needed in ccsd:                275875
 Max. memory used in ccsd:                  323005
 Max. memory used in cckext:                294789 ( 7 integral passes)
 Max. memory used in cckint:               1349842 ( 1 integral passes)



 **********************************************************************************************************************************
 DATASETS  * FILE   NREC   LENGTH (MB)   RECORD NAMES
              1      21       98.59       500      610      700      900      950      970     1000      129      960     1100   
                                          VAR    BASINP    GEOM    SYMINP    ZMAT    AOBASIS   BASIS     P2S    ABASIS      S 
                                         1400     1410     1420     1200     1210     1080     1600     1650     1300     1700   
                                         EKIN       V       ECP      H0       H01     AOSYM     SMH    MOLCAS    ERIS     OPER   
                                         1380   
                                         JKOP   

              2       6        8.31       700     1000      520     4202     5202     2101   
                                         GEOM     BASIS   MCVARS     RHF     MCSCF     RHF  

 PROGRAMS   *        TOTAL  UCCSD(T)       RHF     MULTI       RHF       INT
 CPU TIMES  *        14.33      3.96      0.07      0.78      0.76      8.63
 REAL TIME  *        24.64 SEC
 DISK USED  *       304.96 MB      
 **********************************************************************************************************************************
 SETTING POSTHF(I)      =       -10.09428951  AU                              
                                                                                                                                                                                                                                                                

       SCF            POSTHF       EKIN          POT
    -9.91762400   -10.09428951   3.69785151   -3.63644317
                                                  

 UCCSD(T)/USERDEF energy=    -10.094289512342

        UCCSD(T)        RHF-SCF         MULTI           RHF-SCF 
    -10.09428951     -9.91762400     -9.91762400     -9.92004581
 **********************************************************************************************************************************
 Variable memory released
