
 Primary working directories    : /global/cscratch1/sd/aannabe
 Secondary working directories  : /global/cscratch1/sd/aannabe
 Wavefunction directory         : /global/homes/a/aannabe/wfu/
 Main file repository           : /global/cscratch1/sd/aannabe/

 SHA1      : 19cd028119e0e09f93f0674bd8af7968d9b3eff6
 NAME      : 2015.1.36
 ARCHNAME  : linux/x86_64
 FC        : /opt/cray/pe/craype/2.5.14/bin/ftn
 BLASLIB   : -L/opt/intel/compilers_and_libraries_2018.1.163/linux/mkl/lib/intel64 -Wl,-_start-group -lmkl_intel_ilp64 -lmkl_intel_thread -lmkl_core -Wl,-_end-group -liomp5
 id        : lbl

 Nodes     nprocs
 nid00498     1

 Using customized tuning parameters: mindgm=7; mindgv=16; mindgc=1; mindgr=1; noblas=0; minvec=7
 default implementation of scratch files=df  

 ***,Ar
 memory,512,m
 gthresh,twoint=1.e-12
 
 gprint,basis,orbitals
 gexpec,ekin,pot
 
 angstrom
 geometry={
 1                                                                               ! Number of atoms
 Ar 0.0 0.0 0.0
 }
 
 basis={
 Including file /global/homes/a/aannabe/repos/pseudopotentiallibrary/recipes/Ar/ccECP_He_core/Ar.ccECP.molpro
 Including file /global/homes/a/aannabe/repos/pseudopotentiallibrary/recipes/Ar/ccECP_He_core/cc-pCVQZ.molpro
 }
 
 {hf
  wf,16,1,0
  occ,2,2,2,0,2,0,0,0
 }
 scf(i)=energy
 
 _CC_NORM_MAX=2.0
 {ci
 maxit,100
 core
 }
 posthf(i)=energy
 
 table,scf,posthf,ekin,pot
 save,4.csv,new
 
 

 Variables initialized (889), CPU time= 0.00 sec
 Commands  initialized (702), CPU time= 0.01 sec, 572 directives.
 Default parameters read. Elapsed time= 0.15 sec

 Checking input...
 Passed
1


                                         ***  PROGRAM SYSTEM MOLPRO  ***
                                       Copyright, TTI GmbH Stuttgart, 2015
                                    Version 2015.1 linked Dec 29 2018 15:55:43


 **********************************************************************************************************************************
 LABEL *   Ar                                                                            
  64 bit serial version                                                                  DATE: 03-Jan-19          TIME: 20:58:24  
 **********************************************************************************************************************************

 SHA1:             19cd028119e0e09f93f0674bd8af7968d9b3eff6
 **********************************************************************************************************************************

 THRESHOLDS:

 ZERO    =  1.00D-12  ONEINT  =  1.00D-12  TWOINT  =  1.00D-12  PREFAC  =  1.00D-14  LOCALI  =  1.00D-09  EORDER  =  1.00D-04
 ENERGY  =  0.00D+00  ETEST   =  0.00D+00  EDENS   =  0.00D+00  THRDEDEF=  1.00D-06  GRADIENT=  1.00D-02  STEP    =  1.00D-03
 ORBITAL =  1.00D-05  CIVEC   =  1.00D-05  COEFF   =  1.00D-04  PRINTCI =  5.00D-02  PUNCHCI =  9.90D+01  OPTGRAD =  3.00D-04
 OPTENERG=  1.00D-06  OPTSTEP =  3.00D-04  THRGRAD =  1.00D-10  COMPRESS=  1.00D-11  VARMIN  =  1.00D-07  VARMAX  =  1.00D-03
 THRDOUB =  0.00D+00  THRDIV  =  1.00D-05  THRRED  =  1.00D-07  THRPSP  =  1.00D+00  THRDC   =  1.00D-10  THRCS   =  1.00D-10
 THRNRM  =  1.00D-08  THREQ   =  0.00D+00  THRDE   =  1.00D+00  THRREF  =  1.00D-05  SPARFAC =  1.00D+00  THRDLP  =  1.00D-07
 THRDIA  =  1.00D-10  THRDLS  =  1.00D-07  THRGPS  =  0.00D+00  THRKEX  =  0.00D+00  THRDIS  =  2.00D-01  THRVAR  =  1.00D-10
 THRLOC  =  1.00D-06  THRGAP  =  1.00D-06  THRLOCT = -1.00D+00  THRGAPT = -1.00D+00  THRORB  =  1.00D-06  THRMLTP =  0.00D+00
 THRCPQCI=  1.00D-10  KEXTA   =  0.00D+00  THRCOARS=  0.00D+00  SYMTOL  =  1.00D-06  GRADTOL =  1.00D-06  THROVL  =  1.00D-08
 THRORTH =  1.00D-08  GRID    =  1.00D-06  GRIDMAX =  1.00D-03  DTMAX   =  0.00D+00  THROCCDE=  1.00D-01  THROCCDE=  1.00D-01



 ZUNIT=ANG
 

Geometry recognized as XYZ


 Variable memory set to  512000000 words,  buffer space   230000 words

 SETTING BASIS          =    USERDEF


 Recomputing integrals since basis changed


 Using spherical harmonics



 PROGRAM * SEWARD (Integral evaluation for generally contracted gaussian basis sets)     Author: Roland Lindh, 1990

 Geometry written to block  1 of record 700

 Orientation using atomic masses  
 Molecule type: Atom
 Symmetry elements: X,Y,Z
 Rotational constants:       0.0000000      0.0000000      0.0000000 GHz  (calculated with average atomic masses)

 Point group  D2h 



 ATOMIC COORDINATES

 NR  ATOM    CHARGE       X              Y              Z

   1  AR      8.00    0.000000000    0.000000000    0.000000000


          AR  CORE POTENTIAL

          d POTENTIAL

 POWERS             1              3              2              1              1
 EXPONENTIALS   23.43134       26.73587       26.00333       0.000000       0.000000    
 COEFFICIENTS   16.00000       374.9014      -178.0395       8.000000      -16.00000    

          s - d POTENTIAL

 POWERS             2              2
 EXPONENTIALS   135.6205       60.47105    
 COEFFICIENTS   25.06921       332.1518    

          p - d POTENTIAL

 POWERS             2
 EXPONENTIALS   1.000000    
 COEFFICIENTS   0.000000    


 BASIS DATA

   Nr Sym  Nuc  Type         Exponents   Contraction coefficients

    1.1 Ag    1  1s         400.805381     0.000092    0.000019
    2.1 Ag                  194.251428    -0.001254    0.000114
                             94.144487     0.028879   -0.008693
                             45.627384    -0.177106    0.061175
                             22.113437    -0.077165    0.026792
                             10.717338     0.210187   -0.077780
                              5.194187     0.554369   -0.290747
                              2.517377     0.359070   -0.320036
                              1.220054     0.040769    0.123933
                              0.591302     0.005087    0.539163
                              0.286576    -0.000644    0.456260
                              0.138890     0.000533    0.131892
    3.1 Ag    1  1s          21.968421     1.000000
    4.1 Ag    1  1s           9.302878     1.000000
    5.1 Ag    1  1s           3.939452     1.000000
    6.1 Ag    1  1s           1.352818     1.000000
    7.1 Ag    1  1s           0.542896     1.000000
    8.1 Ag    1  1s           0.217868     1.000000
    9.1 Ag    1  3d0         34.144714     1.000000
   10.1 Ag    1  3d2+        34.144714     1.000000
   11.1 Ag    1  3d0         14.073858     1.000000
   12.1 Ag    1  3d2+        14.073858     1.000000
   13.1 Ag    1  3d0          5.801000     1.000000
   14.1 Ag    1  3d2+         5.801000     1.000000
   15.1 Ag    1  3d0          1.938501     1.000000
   16.1 Ag    1  3d2+         1.938501     1.000000
   17.1 Ag    1  3d0          0.776699     1.000000
   18.1 Ag    1  3d2+         0.776699     1.000000
   19.1 Ag    1  3d0          0.311200     1.000000
   20.1 Ag    1  3d2+         0.311200     1.000000
   21.1 Ag    1  5g0         17.758470     1.000000
   22.1 Ag    1  5g4+        17.758470     1.000000
   23.1 Ag    1  5g2+        17.758470     1.000000
   24.1 Ag    1  5g0          1.003431     1.000000
   25.1 Ag    1  5g4+         1.003431     1.000000
   26.1 Ag    1  5g2+         1.003431     1.000000
    1.2 B3u   1  2px         71.845693     0.014239    0.004145
    2.2 B3u                  38.318786     0.103178    0.028800
                             20.437263     0.185184    0.051916
                             10.900182     0.276357    0.084356
                              5.813595     0.318130    0.103303
                              3.100671     0.211494    0.059763
                              1.653738     0.061926   -0.098524
                              0.882019     0.005821   -0.272871
                              0.470423     0.000838   -0.342112
                              0.250899    -0.000047   -0.289317
                              0.133817     0.000077   -0.143329
                              0.071371    -0.000018   -0.032495
    3.2 B3u   1  2px         24.467009     1.000000
    4.2 B3u   1  2px         12.038771     1.000000
    5.2 B3u   1  2px          5.923569     1.000000
    6.2 B3u   1  2px          2.812209     1.000000
    7.2 B3u   1  2px          1.197871     1.000000
    8.2 B3u   1  2px          0.510238     1.000000
    9.2 B3u   1  4f1+        22.645728     1.000000
   10.2 B3u   1  4f3+        22.645728     1.000000
   11.2 B3u   1  4f1+         8.074659     1.000000
   12.2 B3u   1  4f3+         8.074659     1.000000
   13.2 B3u   1  4f1+         1.311840     1.000000
   14.2 B3u   1  4f3+         1.311840     1.000000
   15.2 B3u   1  4f1+         0.535630     1.000000
   16.2 B3u   1  4f3+         0.535630     1.000000
    1.3 B2u   1  2py         71.845693     0.014239    0.004145
    2.3 B2u                  38.318786     0.103178    0.028800
                             20.437263     0.185184    0.051916
                             10.900182     0.276357    0.084356
                              5.813595     0.318130    0.103303
                              3.100671     0.211494    0.059763
                              1.653738     0.061926   -0.098524
                              0.882019     0.005821   -0.272871
                              0.470423     0.000838   -0.342112
                              0.250899    -0.000047   -0.289317
                              0.133817     0.000077   -0.143329
                              0.071371    -0.000018   -0.032495
    3.3 B2u   1  2py         24.467009     1.000000
    4.3 B2u   1  2py         12.038771     1.000000
    5.3 B2u   1  2py          5.923569     1.000000
    6.3 B2u   1  2py          2.812209     1.000000
    7.3 B2u   1  2py          1.197871     1.000000
    8.3 B2u   1  2py          0.510238     1.000000
    9.3 B2u   1  4f1-        22.645728     1.000000
   10.3 B2u   1  4f3-        22.645728     1.000000
   11.3 B2u   1  4f1-         8.074659     1.000000
   12.3 B2u   1  4f3-         8.074659     1.000000
   13.3 B2u   1  4f1-         1.311840     1.000000
   14.3 B2u   1  4f3-         1.311840     1.000000
   15.3 B2u   1  4f1-         0.535630     1.000000
   16.3 B2u   1  4f3-         0.535630     1.000000
    1.4 B1g   1  3d2-        34.144714     1.000000
    2.4 B1g   1  3d2-        14.073858     1.000000
    3.4 B1g   1  3d2-         5.801000     1.000000
    4.4 B1g   1  3d2-         1.938501     1.000000
    5.4 B1g   1  3d2-         0.776699     1.000000
    6.4 B1g   1  3d2-         0.311200     1.000000
    7.4 B1g   1  5g2-        17.758470     1.000000
    8.4 B1g   1  5g4-        17.758470     1.000000
    9.4 B1g   1  5g2-         1.003431     1.000000
   10.4 B1g   1  5g4-         1.003431     1.000000
    1.5 B1u   1  2pz         71.845693     0.014239    0.004145
    2.5 B1u                  38.318786     0.103178    0.028800
                             20.437263     0.185184    0.051916
                             10.900182     0.276357    0.084356
                              5.813595     0.318130    0.103303
                              3.100671     0.211494    0.059763
                              1.653738     0.061926   -0.098524
                              0.882019     0.005821   -0.272871
                              0.470423     0.000838   -0.342112
                              0.250899    -0.000047   -0.289317
                              0.133817     0.000077   -0.143329
                              0.071371    -0.000018   -0.032495
    3.5 B1u   1  2pz         24.467009     1.000000
    4.5 B1u   1  2pz         12.038771     1.000000
    5.5 B1u   1  2pz          5.923569     1.000000
    6.5 B1u   1  2pz          2.812209     1.000000
    7.5 B1u   1  2pz          1.197871     1.000000
    8.5 B1u   1  2pz          0.510238     1.000000
    9.5 B1u   1  4f0         22.645728     1.000000
   10.5 B1u   1  4f2+        22.645728     1.000000
   11.5 B1u   1  4f0          8.074659     1.000000
   12.5 B1u   1  4f2+         8.074659     1.000000
   13.5 B1u   1  4f0          1.311840     1.000000
   14.5 B1u   1  4f2+         1.311840     1.000000
   15.5 B1u   1  4f0          0.535630     1.000000
   16.5 B1u   1  4f2+         0.535630     1.000000
    1.6 B2g   1  3d1+        34.144714     1.000000
    2.6 B2g   1  3d1+        14.073858     1.000000
    3.6 B2g   1  3d1+         5.801000     1.000000
    4.6 B2g   1  3d1+         1.938501     1.000000
    5.6 B2g   1  3d1+         0.776699     1.000000
    6.6 B2g   1  3d1+         0.311200     1.000000
    7.6 B2g   1  5g1+        17.758470     1.000000
    8.6 B2g   1  5g3+        17.758470     1.000000
    9.6 B2g   1  5g1+         1.003431     1.000000
   10.6 B2g   1  5g3+         1.003431     1.000000
    1.7 B3g   1  3d1-        34.144714     1.000000
    2.7 B3g   1  3d1-        14.073858     1.000000
    3.7 B3g   1  3d1-         5.801000     1.000000
    4.7 B3g   1  3d1-         1.938501     1.000000
    5.7 B3g   1  3d1-         0.776699     1.000000
    6.7 B3g   1  3d1-         0.311200     1.000000
    7.7 B3g   1  5g1-        17.758470     1.000000
    8.7 B3g   1  5g3-        17.758470     1.000000
    9.7 B3g   1  5g1-         1.003431     1.000000
   10.7 B3g   1  5g3-         1.003431     1.000000
    1.8 Au    1  4f2-        22.645728     1.000000
    2.8 Au    1  4f2-         8.074659     1.000000
    3.8 Au    1  4f2-         1.311840     1.000000
    4.8 Au    1  4f2-         0.535630     1.000000

 NUCLEAR CHARGE:                    8
 NUMBER OF PRIMITIVE AOS:         178
 NUMBER OF SYMMETRY AOS:          148
 NUMBER OF CONTRACTIONS:          108   (  26Ag  +  16B3u +  16B2u +  10B1g +  16B1u +  10B2g +  10B3g +   4Au  )
 NUMBER OF CORE ORBITALS:           0   (   0Ag  +   0B3u +   0B2u +   0B1g +   0B1u +   0B2g +   0B3g +   0Au  )
 NUMBER OF VALENCE ORBITALS:        4   (   1Ag  +   1B3u +   1B2u +   0B1g +   1B1u +   0B2g +   0B3g +   0Au  )


 NUCLEAR REPULSION ENERGY    0.00000000

 EXTRA SYMMETRY OF AOS IN SYMMETRY 1:   1 1 1 1 1 1 1 1 2 3   2 3 2 3 2 3 2 3 2 3   4 5 6 4 5 6
 EXTRA SYMMETRY OF AOS IN SYMMETRY 2:   1 1 1 1 1 1 1 1 2 3   2 3 2 3 2 3
 EXTRA SYMMETRY OF AOS IN SYMMETRY 3:   1 1 1 1 1 1 1 1 2 3   2 3 2 3 2 3
 EXTRA SYMMETRY OF AOS IN SYMMETRY 4:   1 1 1 1 1 1 2 3 2 3
 EXTRA SYMMETRY OF AOS IN SYMMETRY 5:   1 1 1 1 1 1 1 1 2 3   2 3 2 3 2 3
 EXTRA SYMMETRY OF AOS IN SYMMETRY 6:   1 1 1 1 1 1 2 3 2 3
 EXTRA SYMMETRY OF AOS IN SYMMETRY 7:   1 1 1 1 1 1 2 3 2 3

 Eigenvalues of metric

         1 0.500E-04 0.537E-03 0.729E-02 0.320E-01 0.573E-01 0.573E-01 0.142E+00 0.142E+00
         2 0.324E-03 0.569E-02 0.220E-01 0.540E-01 0.194E+00 0.311E+00 0.311E+00 0.465E+00
         3 0.324E-03 0.569E-02 0.220E-01 0.540E-01 0.194E+00 0.311E+00 0.311E+00 0.465E+00
         4 0.573E-01 0.142E+00 0.433E+00 0.904E+00 0.988E+00 0.988E+00 0.101E+01 0.101E+01
         5 0.324E-03 0.569E-02 0.220E-01 0.540E-01 0.194E+00 0.311E+00 0.311E+00 0.465E+00
         6 0.573E-01 0.142E+00 0.433E+00 0.904E+00 0.988E+00 0.988E+00 0.101E+01 0.101E+01
         7 0.573E-01 0.142E+00 0.433E+00 0.904E+00 0.988E+00 0.988E+00 0.101E+01 0.101E+01
         8 0.311E+00 0.465E+00 0.147E+01 0.175E+01


 Contracted 2-electron integrals neglected if value below      1.0D-12
 AO integral compression algorithm  1   Integral accuracy      1.0D-12

     20.185 MB (compressed) written to integral file ( 59.6%)


 NUMBER OF SORTED TWO-ELECTRON INTEGRALS:    2285089.     BUFFER LENGTH:  32768
 NUMBER OF SEGMENTS:   1  SEGMENT LENGTH:    2285089      RECORD LENGTH: 524288

 Memory used in sort:       2.84 MW

 SORT1 READ     4189600. AND WROTE     1738785. INTEGRALS IN      5 RECORDS. CPU TIME:     0.11 SEC, REAL TIME:     0.15 SEC
 SORT2 READ     1738785. AND WROTE     2285089. INTEGRALS IN     77 RECORDS. CPU TIME:     0.11 SEC, REAL TIME:     0.22 SEC

 FILE SIZES:   FILE 1:    40.4 MBYTE,  FILE 4:    21.0 MBYTE,   TOTAL:     61.4 MBYTE

 OPERATOR DM      FOR CENTER  0  COORDINATES:    0.000000    0.000000    0.000000
 OPERATOR EKIN    FOR CENTER  0  COORDINATES:    0.000000    0.000000    0.000000
 OPERATOR POT     FOR CENTER  0  COORDINATES:    0.000000    0.000000    0.000000


 **********************************************************************************************************************************
 DATASETS  * FILE   NREC   LENGTH (MB)   RECORD NAMES
              1      20       31.07       500      610      700      900      950      970     1000      129      960     1100   
                                          VAR    BASINP    GEOM    SYMINP    ZMAT    AOBASIS   BASIS     P2S    ABASIS      S 
                                         1400     1410     1420     1200     1210     1080     1600     1650     1300     1700   
                                         EKIN       V       ECP      H0       H01     AOSYM     SMH    MOLCAS    ERIS     OPER   

 PROGRAMS   *        TOTAL       INT
 CPU TIMES  *         1.58      1.45
 REAL TIME  *         8.84 SEC
 DISK USED  *        61.65 MB      
 **********************************************************************************************************************************


 PROGRAM * RHF-SCF (CLOSED SHELL)       Authors: W. Meyer, H.-J. Werner


 NUMBER OF ELECTRONS:       8+    8-    SPACE SYMMETRY=1    SPIN SYMMETRY: Singlet 
 CONVERGENCE THRESHOLDS:    1.00E-05 (Density)    1.00E-07 (Energy)
 MAX. NUMBER OF ITERATIONS:       60
 INTERPOLATION TYPE:            DIIS
 INTERPOLATION STEPS:              2 (START)      1 (STEP)
 LEVEL SHIFTS:                  0.00 (CLOSED)  0.00 (OPEN) 

 Number of closed-shell orbitals:    8 (   2   2   2   0   2   0   0   0 )



   Atom=AR basis=ECP10MWB_GUESS    lmin=0  lmax=1

 Orbital guess generated from atomic densities. Full valence occupancy:    1   1   1   0   1   0   0   0


 Molecular orbital dump at record        2100.2

 ITERATION    DDIFF          GRAD             ENERGY        2-EL.EN.            DIPOLE MOMENTS         DIIS   ORB.
    1      0.000D+00      0.000D+00      -190.21435148    370.140825    0.00000    0.00000    0.00000    0    start
    2      0.000D+00      0.104D+01      -208.49118764    188.956554    0.00000    0.00000    0.00000    1    diag
    3      0.520D+01      0.372D+00      -214.52989901    265.537554    0.00000    0.00000    0.00000    2    diag
    4      0.518D+01      0.849D-01      -214.89186157    250.721279    0.00000    0.00000    0.00000    3    diag
    5      0.163D+00      0.316D-02      -214.89215644    250.589639    0.00000    0.00000    0.00000    4    diag
    6      0.259D-01      0.235D-03      -214.89215983    250.556226    0.00000    0.00000    0.00000    5    diag
    7      0.266D-02      0.182D-04      -214.89215985    250.559074    0.00000    0.00000    0.00000    6    diag
    8      0.253D-03      0.868D-06      -214.89215985    250.559274    0.00000    0.00000    0.00000    7    diag
    9      0.159D-04      0.116D-06      -214.89215985    250.559248    0.00000    0.00000    0.00000    8    diag
   10      0.366D-06      0.110D-07      -214.89215985    250.559251    0.00000    0.00000    0.00000    0    orth

 Final occupancy:   2   2   2   0   2   0   0   0

 !RHF STATE 1.1 Energy               -214.892159852899
 Nuclear energy                         0.00000000
 One-electron energy                 -340.17178512
 Two-electron energy                  125.27962527
 Virial quotient                       -1.25772780
 !RHF STATE 1.1 Dipole moment           0.00000000     0.00000000     0.00000000
 Dipole moment /Debye                   0.00000000     0.00000000     0.00000000
 

 !RHF expec          <1.1|EKIN|1.1>   170.857445725367
 
 !RHF expec           <1.1|POT|1.1>   -32.547864923720

 ELECTRON ORBITALS
 =================


   Orb  Occ    Energy  Couls-En    Coefficients

                                   1 1s      1 1s      1 1s      1 1s      1 1s      1 1s      1 1s      1 1s      1 3d0     1 3d2+ 
                                   1 3d0     1 3d2+    1 3d0     1 3d2+    1 3d0     1 3d2+    1 3d0     1 3d2+    1 3d0     1 3d2+ 
                                   1 5g0     1 5g4+    1 5g2+    1 5g0     1 5g4+    1 5g2+ 

   1.1   2   -12.4289  -45.3352  0.999890 -0.000210 -0.000014  0.000015 -0.000017  0.000013  0.000140  0.000102  0.000000  0.000000
                                -0.000000  0.000000  0.000000  0.000000 -0.000000 -0.000000  0.000000  0.000000 -0.000000 -0.000000
                                -0.000000  0.000000 -0.000000 -0.000000 -0.000000 -0.000000

   2.1   2    -1.2868  -13.0099  0.002945  1.007659  0.000112 -0.000140  0.001571 -0.000398 -0.005353 -0.003453 -0.000000 -0.000000
                                 0.000000  0.000000 -0.000000  0.000000  0.000000  0.000000 -0.000000 -0.000000 -0.000000  0.000000
                                -0.000000 -0.000000 -0.000000 -0.000000 -0.000000 -0.000000

                                   1 2px     1 2px     1 2px     1 2px     1 2px     1 2px     1 2px     1 2px     1 4f1+    1 4f3+ 
                                   1 4f1+    1 4f3+    1 4f1+    1 4f3+    1 4f1+    1 4f3+ 

   1.2   2    -9.7726  -41.4444  0.999914 -0.000001  0.000032  0.000003  0.000053  0.000006  0.000010 -0.000004 -0.000000 -0.000000
                                 0.000000  0.000000 -0.000000 -0.000000 -0.000000 -0.000000

   2.2   2    -0.5909  -10.7380 -0.000055 -1.000008  0.000023 -0.000002  0.000040  0.000001  0.000004 -0.000008 -0.000000  0.000000
                                 0.000000 -0.000000 -0.000000  0.000000 -0.000000 -0.000000

                                   1 2py     1 2py     1 2py     1 2py     1 2py     1 2py     1 2py     1 2py     1 4f1-    1 4f3- 
                                   1 4f1-    1 4f3-    1 4f1-    1 4f3-    1 4f1-    1 4f3- 

   1.3   2    -9.7726  -41.4444  0.999914 -0.000001  0.000032  0.000003  0.000053  0.000006  0.000010 -0.000004 -0.000000  0.000000
                                 0.000000 -0.000000 -0.000000  0.000000 -0.000000  0.000000

   2.3   2    -0.5909  -10.7380 -0.000055 -1.000008  0.000023 -0.000002  0.000040  0.000001  0.000004 -0.000008 -0.000000 -0.000000
                                 0.000000  0.000000 -0.000000 -0.000000 -0.000000  0.000000

                                   1 2pz     1 2pz     1 2pz     1 2pz     1 2pz     1 2pz     1 2pz     1 2pz     1 4f0     1 4f2+ 
                                   1 4f0     1 4f2+    1 4f0     1 4f2+    1 4f0     1 4f2+ 

   1.5   2    -9.7726  -41.4444  0.999914 -0.000001  0.000032  0.000003  0.000053  0.000006  0.000010 -0.000004 -0.000000 -0.000000
                                 0.000000 -0.000000 -0.000000  0.000000  0.000000 -0.000000

   2.5   2    -0.5909  -10.7380 -0.000055 -1.000008  0.000023 -0.000002  0.000040  0.000001  0.000004 -0.000008 -0.000000 -0.000000
                                 0.000000  0.000000  0.000000 -0.000000 -0.000000  0.000000

 HOMO      2.2    -0.590910 =     -16.0795eV
 LUMO      3.1     0.542111 =      14.7516eV
 LUMO-HOMO         1.133021 =      30.8311eV


 **********************************************************************************************************************************
 DATASETS  * FILE   NREC   LENGTH (MB)   RECORD NAMES
              1      20       31.07       500      610      700      900      950      970     1000      129      960     1100   
                                          VAR    BASINP    GEOM    SYMINP    ZMAT    AOBASIS   BASIS     P2S    ABASIS      S 
                                         1400     1410     1420     1200     1210     1080     1600     1650     1300     1700   
                                         EKIN       V       ECP      H0       H01     AOSYM     SMH    MOLCAS    ERIS     OPER   

              2       4        2.80       700     1000      520     2100   
                                         GEOM     BASIS   MCVARS     RHF  

 PROGRAMS   *        TOTAL        HF       INT
 CPU TIMES  *         1.71      0.13      1.45
 REAL TIME  *        10.52 SEC
 DISK USED  *        61.65 MB      
 **********************************************************************************************************************************
 SETTING SCF(I)         =      -214.89215985  AU                              
 SETTING _CC_NORM_MAX   =         2.00000000                                  


 PROGRAM * CI (Multireference internally contracted CI)     Authors: H.-J. Werner, P.J. Knowles, 1987


 Convergence thresholds:  THRVAR = 1.00D-08  THRDEN = 1.00D-06

 Number of optimized states:  1  Roots:   1
 Number of reference states:  1  Roots:   1

 Reference symmetry:                   1   Singlet 
 Number of electrons:                 16
 Maximum number of shells:             3
 Maximum number of spin couplings:     2

 Reference space:        1 conf        1 CSFs
 N elec internal:        1 conf        1 CSFs
 N-1 el internal:        8 conf        8 CSFs
 N-2 el internal:       36 conf       64 CSFs

 Number of electrons in valence space:                     16
 Maximum number of open shell orbitals in reference space:  0
 Maximum number of open shell orbitals in internal spaces:  4


 Number of closed-shell orbitals:   8 (   2   2   2   0   2   0   0   0 )
 Number of external orbitals:     100 (  24  14  14  10  14  10  10   4 )

 Molecular orbitals read from record     2100.2  Type=RHF/CANONICAL (state 1.1)

 Integral transformation finished. Total CPU:   0.03 sec, npass=  1  Memory used:   0.12 MW

 Number of p-space configurations:   1

 Reference wavefunction optimized for reference space (refopt=1)

 State     Reference Energy 
   1        -214.89215985

 Number of blocks in overlap matrix:    64   Smallest eigenvalue:  0.10D+01
 Number of N-2 electron functions:      64
 Number of N-1 electron functions:       8

 Number of internal configurations:                    1
 Number of singly external configurations:           132
 Number of doubly external configurations:         42192
 Total number of contracted configurations:        42325
 Total number of uncontracted configurations:      42325

 Diagonal Coupling coefficients finished.               Storage:    4485 words, CPU-Time:      0.00 seconds.
 Energy denominators for pairs finished in 1 passes.    Storage:   30211 words, CPU-time:      0.00 seconds.

  ITER. STATE  ROOT     SQ.NORM     CORR.ENERGY   TOTAL ENERGY   ENERGY CHANGE       DEN1      VAR(S)    VAR(P)      TIME
    1     1     1     1.00000000     0.00000000  -214.89215985    -0.00000000    -0.61723917  0.52D-15  0.10D+00     0.05
    2     1     1     1.07748215    -0.54174982  -215.43390967    -0.54174982    -0.01163784  0.18D-03  0.26D-02     0.13
    3     1     1     1.06288180    -0.55264937  -215.44480923    -0.01089955    -0.00006814  0.11D-05  0.10D-04     0.19
    4     1     1     1.06269592    -0.55271704  -215.44487689    -0.00006767    -0.00000104  0.96D-07  0.14D-06     0.26
    5     1     1     1.06273650    -0.55271809  -215.44487794    -0.00000105    -0.00000002  0.12D-08  0.24D-08     0.32
    6     1     1     1.06273894    -0.55271810  -215.44487796    -0.00000002    -0.00000000  0.62D-10  0.46D-10     0.38


 =====================================
 Analysis of CPU times by interactions
 =====================================

       I      S      P

 I   0.0%
 S   0.0%   0.0%
 P   0.0%   0.0%  26.3%

 Initialization:  13.2%
 Other:           60.5%

 Total CPU:        0.4 seconds
 =====================================



 Reference coefficients greater than 0.0500000
 =============================================
 22222222           0.9700334



 RESULTS FOR STATE 1.1
 =====================

 Coefficient of reference function:   C(0) = 0.97003343 (fixed)   0.97003343 (relaxed)

 Energy contributions of configuration classes

 CLASS          SQ.NORM        ECORR1        ECORR2
 +++++++++++++++++++++++++++++++++++++++++++++++++++
 Internals    0.00000000    0.00000000    0.00000000
 Singles      0.00019594    0.00000000   -0.00010178
 Pairs        0.06254300   -0.55271810   -0.55261632
 Total        1.06273894   -0.55271810   -0.55271810
 +++++++++++++++++++++++++++++++++++++++++++++++++++


 Reference energy                    -214.89215985
 Nuclear energy                         0.00000000
 Kinetic energy                       171.33650040
 One electron energy                 -339.91961460
 Two electron energy                  124.47473664
 Virial quotient                       -1.25743713
 Correlation energy                    -0.55271810
 !CI(SD) STATE 1.1 Energy            -215.444877956864

 Properties without orbital relaxation:

 !CI(SD) STATE 1.1 Dipole moment        0.00000000     0.00000000     0.00000000
 Dipole moment /Debye                   0.00000000     0.00000000     0.00000000

 Cluster corrected energies          -215.47955491 (Davidson, fixed reference)
 Cluster corrected energies          -215.47955491 (Davidson, relaxed reference)

 Cluster corrected energies          -215.47670344 (Pople, fixed reference)
 Cluster corrected energies          -215.47670344 (Pople, relaxed reference)

 

 !CI(SD) expec       <1.1|EKIN|1.1>   171.336500398802
 
 !CI(SD) expec        <1.1|POT|1.1>   -32.562672478362


 **********************************************************************************************************************************
 DATASETS  * FILE   NREC   LENGTH (MB)   RECORD NAMES
              1      21       31.83       500      610      700      900      950      970     1000      129      960     1100   
                                          VAR    BASINP    GEOM    SYMINP    ZMAT    AOBASIS   BASIS     P2S    ABASIS      S 
                                         1400     1410     1420     1200     1210     1080     1600     1650     1300     1700   
                                         EKIN       V       ECP      H0       H01     AOSYM     SMH    MOLCAS    ERIS     OPER   
                                         1380   
                                         JKOP   

              2       4        2.80       700     1000      520     2100   
                                         GEOM     BASIS   MCVARS     RHF  

 PROGRAMS   *        TOTAL        CI        HF       INT
 CPU TIMES  *         2.13      0.42      0.13      1.45
 REAL TIME  *        12.33 SEC
 DISK USED  *        61.65 MB      
 **********************************************************************************************************************************
 SETTING POSTHF(I)      =      -215.44487796  AU                              
                                                                                                                                                                                                                                                                

         SCF            POSTHF        EKIN          POT
    -214.8921599   -215.4448780   171.3365004   -32.56267248
                                                  

 CI/USERDEF energy=   -215.444877956864

        CI              HF-SCF  
   -215.44487796   -214.89215985
 **********************************************************************************************************************************
 Molpro calculation terminated
 Variable memory released
