----- GAMESS execution script 'rungms' -----
This job is running on host login2.stampede2.tacc.utexas.edu
under operating system Linux at Sun Jun 30 14:36:31 CDT 2019
Available scratch disk space (Kbyte units) at beginning of the job is
Filesystem     1K-blocks    Used Available Use% Mounted on
/dev/md2        73411824 9482576  60193392  14% /tmp
GAMESS temporary binary files will be written to /tmp
GAMESS supplementary output files will be written to /work/04843/aannabe/stampede2/docs/accurate/qwalk/Be/TZ_PBE
Copying input file Be.inp to your run's scratch directory...

 Distributed Data Interface kickoff program.
 Initiating 1 compute processes on 1 nodes to run the following command:
 /work/04843/aannabe/stampede2/codes/gamess-mcb/gamess/gamess.00.x Be 

          ******************************************************
          *         GAMESS VERSION =  1 MAY 2013 (R1)          *
          *             FROM IOWA STATE UNIVERSITY             *
          * M.W.SCHMIDT, K.K.BALDRIDGE, J.A.BOATZ, S.T.ELBERT, *
          *   M.S.GORDON, J.H.JENSEN, S.KOSEKI, N.MATSUNAGA,   *
          *          K.A.NGUYEN, S.J.SU, T.L.WINDUS,           *
          *       TOGETHER WITH M.DUPUIS, J.A.MONTGOMERY       *
          *         J.COMPUT.CHEM.  14, 1347-1363(1993)        *
          **************** 64 BIT INTEL VERSION ****************

  SINCE 1993, STUDENTS AND POSTDOCS WORKING AT IOWA STATE UNIVERSITY
  AND ALSO IN THEIR VARIOUS JOBS AFTER LEAVING ISU HAVE MADE IMPORTANT
  CONTRIBUTIONS TO THE CODE:
     IVANA ADAMOVIC, CHRISTINE AIKENS, YURI ALEXEEV, POOJA ARORA,
     ANDREY ASADCHEV, ROB BELL, PRADIPTA BANDYOPADHYAY, JONATHAN BENTZ,
     BRETT BODE, GALINA CHABAN, WEI CHEN, CHEOL HO CHOI, PAUL DAY,
     ALBERT DEFUSCO, TIM DUDLEY, DMITRI FEDOROV, GRAHAM FLETCHER,
     MARK FREITAG, KURT GLAESEMANN, DAN KEMP, GRANT MERRILL,
     NORIYUKI MINEZAWA, JONATHAN MULLIN, TAKESHI NAGATA,
     SEAN NEDD, HEATHER NETZLOFF, BOSILJKA NJEGIC, RYAN OLSON, MIKE PAK,
     JIM SHOEMAKER, LYUDMILA SLIPCHENKO, SAROM SOK, JIE SONG,
     TETSUYA TAKETSUGU, SIMON WEBB, SOOHAENG YOO, FEDERICO ZAHARIEV

  ADDITIONAL CODE HAS BEEN PROVIDED BY COLLABORATORS IN OTHER GROUPS:
     IOWA STATE UNIVERSITY:
          JOE IVANIC, LAIMUTIS BYTAUTAS, KLAUS RUEDENBERG
     UNIVERSITY OF TOKYO: KIMIHIKO HIRAO, TAKAHITO NAKAJIMA,
          TAKAO TSUNEDA, MUNEAKI KAMIYA, SUSUMU YANAGISAWA,
          KIYOSHI YAGI, MAHITO CHIBA, SEIKEN TOKURA, NAOAKI KAWAKAMI
     UNIVERSITY OF AARHUS: FRANK JENSEN
     UNIVERSITY OF IOWA: VISVALDAS KAIRYS, HUI LI
     NATIONAL INST. OF STANDARDS AND TECHNOLOGY: WALT STEVENS, DAVID GARMER
     UNIVERSITY OF PISA: BENEDETTA MENNUCCI, JACOPO TOMASI
     UNIVERSITY OF MEMPHIS: HENRY KURTZ, PRAKASHAN KORAMBATH
     UNIVERSITY OF ALBERTA: TOBY ZENG, MARIUSZ KLOBUKOWSKI
     UNIVERSITY OF NEW ENGLAND: MARK SPACKMAN
     MIE UNIVERSITY: HIROAKI UMEDA
     MICHIGAN STATE UNIVERSITY:
          KAROL KOWALSKI, MARTA WLOCH, JEFFREY GOUR, JESSE LUTZ,
          WEI LI, PIOTR PIECUCH
     UNIVERSITY OF SILESIA: MONIKA MUSIAL, STANISLAW KUCHARSKI
     FACULTES UNIVERSITAIRES NOTRE-DAME DE LA PAIX:
          OLIVIER QUINET, BENOIT CHAMPAGNE
     UNIVERSITY OF CALIFORNIA - SANTA BARBARA: BERNARD KIRTMAN
     INSTITUTE FOR MOLECULAR SCIENCE:
          KAZUYA ISHIMURA, MICHIO KATOUDA, AND SHIGERU NAGASE
     UNIVERSITY OF NOTRE DAME: DAN CHIPMAN
     KYUSHU UNIVERSITY:
          HARUYUKI NAKANO,
          FENG LONG GU, JACEK KORCHOWIEC, MARCIN MAKOWSKI, AND YURIKO AOKI,
          HIROTOSHI MORI AND EISAKU MIYOSHI
     PENNSYLVANIA STATE UNIVERSITY:
          TZVETELIN IORDANOV, CHET SWALINA, JONATHAN SKONE,
          SHARON HAMMES-SCHIFFER
     WASEDA UNIVERSITY:
          MASATO KOBAYASHI, TOMOKO AKAMA, TSUGUKI TOUMA,
          TAKESHI YOSHIKAWA, YASUHIRO IKABATA, HIROMI NAKAI
     NANJING UNIVERSITY: SHUHUA LI
     UNIVERSITY OF NEBRASKA:
          PEIFENG SU, DEJUN SI, NANDUN THELLAMUREGE, YALI WANG, HUI LI
     UNIVERSITY OF ZURICH:
          ROBERTO PEVERATI, KIM BALDRIDGE
     N. COPERNICUS UNIVERSITY AND JACKSON STATE UNIVERSITY:
          MARIA BARYSZ

 EXECUTION OF GAMESS BEGUN Sun Jun 30 14:36:31 2019

            ECHO OF THE FIRST FEW INPUT CARDS -
 INPUT CARD> $CONTRL                                                                        
 INPUT CARD>     SCFTYP=ROHF                                                                
 INPUT CARD>     DFTTYP=PBE                                                                 
 INPUT CARD>     MULT=1                                                                     
 INPUT CARD>     ICHARG=0                                                                   
 INPUT CARD>     RUNTYP=ENERGY                                                              
 INPUT CARD>     MAXIT=150                                                                  
 INPUT CARD>     ECP=READ                                                                   
 INPUT CARD>     ISPHER=1                                                                   
 INPUT CARD> $END                                                                           
 INPUT CARD>                                                                                
 INPUT CARD> $SYSTEM                                                                        
 INPUT CARD>     KDIAG=3                                                                    
 INPUT CARD> $END                                                                           
 INPUT CARD>                                                                                
 INPUT CARD> $GUESS                                                                         
 INPUT CARD>    GUESS=HUCKEL                                                                
 INPUT CARD> $END                                                                           
 INPUT CARD>                                                                                
 INPUT CARD>                                                                                
 INPUT CARD> $DATA                                                                          
 INPUT CARD>                                                                                
 INPUT CARD>C1                                                                              
 INPUT CARD>Be 4    0. 0. 0.                                                                
 INPUT CARD>S  9                                                                            
 INPUT CARD>  1      15.965877  0.00069000                                                  
 INPUT CARD>  2       7.367361  -0.00037700                                                 
 INPUT CARD>  3       3.399626  0.02406900                                                  
 INPUT CARD>  4       1.568738  -0.11198900                                                 
 INPUT CARD>  5       0.723885  -0.07644200                                                 
 INPUT CARD>  6       0.334032  0.13574400                                                  
 INPUT CARD>  7       0.154137  0.41851500                                                  
 INPUT CARD>  8       0.071126  0.46292400                                                  
 INPUT CARD>  9       0.032821  0.12826600                                                  
 INPUT CARD>P  9                                                                            
 INPUT CARD>  1      16.554942  0.00034100                                                  
 INPUT CARD>  2       7.526050  0.00322800                                                  
 INPUT CARD>  3       3.421421  0.01766000                                                  
 INPUT CARD>  4       1.555414  0.03866400                                                  
 INPUT CARD>  5       0.707108  0.09863900                                                  
 INPUT CARD>  6       0.321458  0.23125900                                                  
 INPUT CARD>  7       0.146138  0.38710900                                                  
 INPUT CARD>  8       0.066436  0.33944800                                                  
 INPUT CARD>  9       0.030203  0.08910200                                                  
 INPUT CARD>S  1                                                                            
 INPUT CARD>  1       0.345184  1.00000000                                                  
 INPUT CARD>S  1                                                                            
 INPUT CARD>  1       0.053614  1.00000000                                                  
 INPUT CARD>P  1                                                                            
 INPUT CARD>  1       1.352043  1.00000000                                                  
    1000000 WORDS OF MEMORY AVAILABLE


     RUN TITLE
     ---------
                                                                                 

 THE POINT GROUP OF THE MOLECULE IS C1      
 THE ORDER OF THE PRINCIPAL AXIS IS     0

 ATOM      ATOMIC                      COORDINATES (BOHR)
           CHARGE         X                   Y                   Z
 BE          4.0     0.0000000000        0.0000000000        0.0000000000

          INTERNUCLEAR DISTANCES (ANGS.)
          ------------------------------

                1 BE    

   1 BE      0.0000000  

  * ... LESS THAN  3.000


     ATOMIC BASIS SET
     ----------------
 THE CONTRACTED PRIMITIVE FUNCTIONS HAVE BEEN UNNORMALIZED
 THE CONTRACTED BASIS FUNCTIONS ARE NOW NORMALIZED TO UNITY

  SHELL TYPE  PRIMITIVE        EXPONENT          CONTRACTION COEFFICIENT(S)

 BE        

      1   S       1            15.9658770    0.000689999755
      1   S       2             7.3673610   -0.000376999866
      1   S       3             3.3996260    0.024068991438
      1   S       4             1.5687380   -0.111988960163
      1   S       5             0.7238850   -0.076441972808
      1   S       6             0.3340320    0.135743951713
      1   S       7             0.1541370    0.418514851126
      1   S       8             0.0711260    0.462923835329
      1   S       9             0.0328210    0.128265954373

      2   P      10            16.5549420    0.000340999822
      2   P      11             7.5260500    0.003227998312
      2   P      12             3.4214210    0.017659990768
      2   P      13             1.5554140    0.038663979788
      2   P      14             0.7071080    0.098638948434
      2   P      15             0.3214580    0.231258879104
      2   P      16             0.1461380    0.387108797630
      2   P      17             0.0664360    0.339447822546
      2   P      18             0.0302030    0.089101953420

      3   S      19             0.3451840    1.000000000000

      4   S      20             0.0536140    1.000000000000

      5   P      21             1.3520430    1.000000000000

      6   P      22             0.2258420    1.000000000000

      7   D      23             0.3826920    1.000000000000

      8   D      24             0.1763990    1.000000000000

      9   F      25             0.3234520    1.000000000000

 TOTAL NUMBER OF BASIS SET SHELLS             =    9
 NUMBER OF CARTESIAN GAUSSIAN BASIS FUNCTIONS =   34
 NOTE: THIS RUN WILL RESTRICT THE MO VARIATION SPACE TO SPHERICAL HARMONICS.
 THE NUMBER OF ORBITALS KEPT IN THE VARIATIONAL SPACE WILL BE PRINTED LATER.
 NUMBER OF ELECTRONS                          =    4
 CHARGE OF MOLECULE                           =    0
 SPIN MULTIPLICITY                            =    1
 NUMBER OF OCCUPIED ORBITALS (ALPHA)          =    2
 NUMBER OF OCCUPIED ORBITALS (BETA )          =    2
 TOTAL NUMBER OF ATOMS                        =    1
 THE NUCLEAR REPULSION ENERGY IS        0.0000000000
 NOTE THIS RUN IS USING CORE POTENTIALS, AND THE NUMBER OF ELECTRONS,
 OCCUPIED ORBITALS, AND NUCLEAR REPULSION ENERGY WILL BE ADJUSTED BELOW
 AFTER REMOVAL OF THE CORE CHARGES.

 THIS MOLECULE IS RECOGNIZED AS BEING LINEAR,
 ORBITAL LZ DEGENERACY TOLERANCE ETOLLZ= 1.00E-06

     LEBEDEV GRID-BASED DFT OPTIONS
     ------------------------------
     DFTTYP=PBE     
     NRAD  =      96     NLEB  =     302
     NRAD0 =      24     NLEB0 =     110
     SWOFF =    5.00E-03 (PURE SCF -> DFT)
     SWITCH=    3.00E-04 (COARSE -> TIGHT GRID)
     THRESH=    0.00E+00 GTHRE=    1.00E+00

 GRIMME'S EMPIRICAL DISPERSION CORRECTION= F

     $CONTRL OPTIONS
     ---------------
 SCFTYP=ROHF         RUNTYP=ENERGY       EXETYP=RUN     
 MPLEVL=       0     CITYP =NONE         CCTYP =NONE         VBTYP =NONE    
 DFTTYP=PBE          TDDFT =NONE    
 MULT  =       1     ICHARG=       0     NZVAR =       0     COORD =UNIQUE  
 PP    =READ         RELWFN=NONE         LOCAL =NONE         NUMGRD=       F
 ISPHER=       1     NOSYM =       0     MAXIT =     150     UNITS =ANGS    
 PLTORB=       F     MOLPLT=       F     AIMPAC=       F     FRIEND=        
 NPRINT=       7     IREST =       0     GEOM  =INPUT   
 NORMF =       0     NORMP =       0     ITOL  =      20     ICUT  =       9
 INTTYP=BEST         GRDTYP=BEST         QMTTOL= 1.0E-06

     $SYSTEM OPTIONS
     ---------------
  REPLICATED MEMORY=     1000000 WORDS (ON EVERY NODE).
 DISTRIBUTED MEMDDI=           0 MILLION WORDS IN AGGREGATE,
 MEMDDI DISTRIBUTED OVER   1 PROCESSORS IS           0 WORDS/PROCESSOR.
 TOTAL MEMORY REQUESTED ON EACH PROCESSOR=     1000000 WORDS.
 TIMLIM=      525600.00 MINUTES, OR     365.0 DAYS.
 PARALL= F  BALTYP=  DLB     KDIAG=    3  COREFL= F
 MXSEQ2=     300 MXSEQ3=     150

          --------------
          ECP POTENTIALS
          --------------

 PARAMETERS FOR "BE-CCECP" ON ATOM    1 WITH ZCORE   2 AND LMAX  1 ARE
 FOR L= 1      COEFF    N           ZETA
    1        2.00000    1       17.94900
    2       35.89800    3       24.13200
    3      -12.77500    2       20.13800
    4       -2.96001    2        4.33317
 FOR L= 0      COEFF    N           ZETA
    1       12.66392    2        2.48740

 THE ECP RUN REMOVES    2 CORE ELECTRONS, AND THE SAME NUMBER OF PROTONS.
 NUMBER OF ELECTRONS KEPT IN THE CALCULATION IS =    2
 NUMBER OF OCCUPIED ORBITALS (ALPHA) KEPT IS    =    1
 NUMBER OF OCCUPIED ORBITALS (BETA ) KEPT IS    =    1
 THE ADJUSTED NUCLEAR REPULSION ENERGY=        0.0000000000
          ECP ANGULAR INTS.........     0.00 SECONDS

          ----------------
          PROPERTIES INPUT
          ----------------

     MOMENTS            FIELD           POTENTIAL          DENSITY
 IEMOM =       1   IEFLD =       0   IEPOT =       0   IEDEN =       0
 WHERE =COMASS     WHERE =NUCLEI     WHERE =NUCLEI     WHERE =NUCLEI  
 OUTPUT=BOTH       OUTPUT=BOTH       OUTPUT=BOTH       OUTPUT=BOTH    
 IEMINT=       0   IEFINT=       0                     IEDINT=       0
                                                       MORB  =       0
          EXTRAPOLATION IN EFFECT
          DIIS IN EFFECT
 ORBITAL PRINTING OPTION: NPREO=     1    34     2     1

     -------------------------------
     INTEGRAL TRANSFORMATION OPTIONS
     -------------------------------
     NWORD  =            0
     CUTOFF = 1.0E-09     MPTRAN =       0
     DIRTRF =       F     AOINTS =DUP     

          ----------------------
          INTEGRAL INPUT OPTIONS
          ----------------------
 NOPK  =       1 NORDER=       0 SCHWRZ=       F

     ------------------------------------------
     THE POINT GROUP IS C1 , NAXIS= 0, ORDER= 1
     ------------------------------------------

 -- VARIATIONAL SPACE WILL BE RESTRICTED TO PURE SPHERICAL HARMONICS ONLY --
 AFTER EXCLUDING CONTAMINANT COMBINATIONS FROM THE CARTESIAN GAUSSIAN BASIS
 SET, THE NUMBER OF SPHERICAL HARMONICS KEPT IN THE VARIATION SPACE IS   29

     DIMENSIONS OF THE SYMMETRY SUBSPACES ARE
 A   =   29

 ..... DONE SETTING UP THE RUN .....
 STEP CPU TIME =     0.01 TOTAL CPU TIME =        0.0 (    0.0 MIN)
 TOTAL WALL CLOCK TIME=        0.2 SECONDS, CPU UTILIZATION IS   5.88%

          ********************
          1 ELECTRON INTEGRALS
          ********************
 TIME TO DO ORDINARY INTEGRALS=      0.00
 TIME TO DO      ECP INTEGRALS=      0.00
 ...... END OF ONE-ELECTRON INTEGRALS ......
 STEP CPU TIME =     0.00 TOTAL CPU TIME =        0.0 (    0.0 MIN)
 TOTAL WALL CLOCK TIME=        0.3 SECONDS, CPU UTILIZATION IS   3.85%

          -------------
          GUESS OPTIONS
          -------------
          GUESS =HUCKEL            NORB  =       0          NORDER=       0
          MIX   =       F          PRTMO =       F          PUNMO =       F
          TOLZ  = 1.0E-08          TOLE  = 1.0E-05
          SYMDEN=       F          PURIFY=       F

 INITIAL GUESS ORBITALS GENERATED BY HUCKEL   ROUTINE.
 HUCKEL GUESS REQUIRES      9288 WORDS.

 STATISTICS FOR GENERATION OF SYMMETRY ORBITAL -Q- MATRIX
 NUMBER OF CARTESIAN ATOMIC ORBITALS=         34
 NUMBER OF SPHERICAL CONTAMINANTS DROPPED=     5
 NUMBER OF LINEARLY DEPENDENT MOS DROPPED=     0
 TOTAL NUMBER OF MOS IN VARIATION SPACE=      29

 SYMMETRIES FOR INITIAL GUESS ORBITALS FOLLOW.  ALPHA SET(S).
     1 ORBITALS ARE OCCUPIED (    0 CORE ORBITALS).
     1=A        2=A        3=A        4=A        5=A        6=A        7=A   
     8=A        9=A       10=A       11=A   

 SYMMETRIES FOR INITIAL GUESS ORBITALS FOLLOW.   BETA SET(S).
     1 ORBITALS ARE OCCUPIED (    0 CORE ORBITALS).
     1=A        2=A        3=A        4=A        5=A        6=A        7=A   
     8=A        9=A       10=A       11=A   
 ...... END OF INITIAL ORBITAL SELECTION ......
 STEP CPU TIME =     0.01 TOTAL CPU TIME =        0.0 (    0.0 MIN)
 TOTAL WALL CLOCK TIME=        0.3 SECONDS, CPU UTILIZATION IS   6.45%

                    ----------------------
                    AO INTEGRAL TECHNOLOGY
                    ----------------------
     S,P,L SHELL ROTATED AXIS INTEGRALS, REPROGRAMMED BY
        KAZUYA ISHIMURA (IMS) AND JOSE SIERRA (SYNSTAR).
     S,P,D,L SHELL ROTATED AXIS INTEGRALS PROGRAMMED BY
        KAZUYA ISHIMURA (INSTITUTE FOR MOLECULAR SCIENCE).
     S,P,D,F,G SHELL TO TOTAL QUARTET ANGULAR MOMENTUM SUM 5,
        ERIC PROGRAM BY GRAHAM FLETCHER (ELORET AND NASA ADVANCED
        SUPERCOMPUTING DIVISION, AMES RESEARCH CENTER).
     S,P,D,F,G,L SHELL GENERAL RYS QUADRATURE PROGRAMMED BY
        MICHEL DUPUIS (PACIFIC NORTHWEST NATIONAL LABORATORY).

          --------------------
          2 ELECTRON INTEGRALS
          --------------------

 THE -PK- OPTION IS OFF, THE INTEGRALS ARE NOT IN SUPERMATRIX FORM.
 STORING   15000 INTEGRALS/RECORD ON DISK, USING 12 BYTES/INTEGRAL.
 TWO ELECTRON INTEGRAL EVALUATION REQUIRES   99145 WORDS OF MEMORY.
 II,JST,KST,LST =  1  1  1  1 NREC =         1 INTLOC =    1
 II,JST,KST,LST =  2  1  1  1 NREC =         1 INTLOC =    2
 II,JST,KST,LST =  3  1  1  1 NREC =         1 INTLOC =   17
 II,JST,KST,LST =  4  1  1  1 NREC =         1 INTLOC =   34
 II,JST,KST,LST =  5  1  1  1 NREC =         1 INTLOC =   67
 II,JST,KST,LST =  6  1  1  1 NREC =         1 INTLOC =  214
 II,JST,KST,LST =  7  1  1  1 NREC =         1 INTLOC =  571
 II,JST,KST,LST =  8  1  1  1 NREC =         1 INTLOC = 2257
 II,JST,KST,LST =  9  1  1  1 NREC =         1 INTLOC = 6628
 TOTAL NUMBER OF NONZERO TWO-ELECTRON INTEGRALS =               24016
          2 INTEGRAL RECORDS WERE STORED ON DISK FILE  8.
  ...... END OF TWO-ELECTRON INTEGRALS .....
 STEP CPU TIME =     0.02 TOTAL CPU TIME =        0.0 (    0.0 MIN)
 TOTAL WALL CLOCK TIME=        0.4 SECONDS, CPU UTILIZATION IS  10.53%

          ---------------------------
               RO-PBE SCF CALCULATION
          ---------------------------

     NUCLEAR ENERGY =         0.0000000000
     MAXIT =150     NPUNCH=  2     MULT=  1
     EXTRAP=T  DAMP=F  SHIFT=F  RSTRCT=F  DIIS=T  SOSCF=F
         DENSITY MATRIX CONVERGENCE THRESHOLD=  1.00E-05
     COARSE -> FINE DFT GRID SWITCH THRESHOLD=  3.00E-04 (SWITCH IN $DFT)
                   HF -> DFT SWITCH THRESHOLD=  5.00E-03 (SWOFF IN $DFT)
     ROHF CANONICALIZATION PARAMETERS
             C-C     O-O     V-V
     ALPHA -0.5000  0.5000  1.5000
     BETA   1.5000  0.5000 -0.5000
     MEMORY REQUIRED FOR UHF/ROHF ITERS=    126887 WORDS.

 DFT CODE IS SWITCHING FROM THE FINE GRID NRAD= 96,  NLEB=  302
                      TO THE COARSE GRID NRAD0= 24, NLEB0=  110

     EXCHANGE FUNCTIONAL   =PBE       
     CORRELATION FUNCTIONAL=PBE       
     DFT THRESHOLD         =.138E-06
     GRID CHANGE THRESHOLD =.300E-03
 FOR AN EULER-MACLAURIN QUADRATURE USING  96 RADIAL POINTS:
 SMALLEST GAUSSIAN PRIMITIVE EXPONENT=        0.0302030000 OF TYPE -P-
 ON ATOM NUMBER   1 HAS RADIAL NORMALIZATION=  1.000000
  LARGEST GAUSSIAN PRIMITIVE EXPONENT=       16.5549420000 OF TYPE -P-
 ON ATOM NUMBER   1 HAS RADIAL NORMALIZATION=  1.000000
 DFT IS SWITCHED OFF, PERFORMING PURE SCF UNTIL SWOFF THRESHOLD IS REACHED.

 ITER EX      TOTAL ENERGY        E CHANGE  DENSITY CHANGE    DIIS ERROR
          * * *   INITIATING DIIS PROCEDURE   * * *
   1  0       -0.9357513531    -0.9357513531   0.242036031   0.218348096
   2  1       -0.9610857849    -0.0253344318   0.094654990   0.035616870
   3  2       -0.9618819783    -0.0007961934   0.033516737   0.002375320
   4  3       -0.9618925755    -0.0000105972   0.000172252   0.000025500
 CONVERGED TO SWOFF, SO DFT CALCULATION IS NOW SWITCHED ON.
 DFT CODE IS SWITCHING BACK TO THE FINE GRID
          * * *   INITIATING DIIS PROCEDURE   * * *
   5  4       -0.9948693901    -0.0329768146   0.257714102   0.033470251
   6  5       -0.9952485200    -0.0003791299   0.010065826   0.002806807
   7  6       -0.9952527889    -0.0000042689   0.004703979   0.000498517
   8  7       -0.9952530704    -0.0000002815   0.000007108   0.000001061
   9  8       -0.9952530704     0.0000000000   0.000000002   0.000000000
  10  9       -0.9952530704     0.0000000000   0.000000004   0.000000000

          -----------------
          DENSITY CONVERGED
          -----------------
     TIME TO FORM FOCK OPERATORS=       0.4 SECONDS (       0.0 SEC/ITER)
     TIME TO SOLVE SCF EQUATIONS=       0.0 SECONDS (       0.0 SEC/ITER)

 FINAL RO-PBE ENERGY IS       -0.9952530704 AFTER  10 ITERATIONS
 DFT EXCHANGE + CORRELATION ENERGY =        -0.3804175950
 TOTAL ELECTRON NUMBER             =         1.9999998842

          --------------------
          SPIN SZ   =    0.000
          S-SQUARED =    0.000
          --------------------

 LZ VALUE ANALYSIS FOR THE MOS
 ----------------------------------------
 MO     1 (    1) HAS LZ(WEIGHT)= 0.00(100.0%) 
 MO     2 (    2) HAS LZ(WEIGHT)= 0.00(100.0%) 
 MO     3 (    2) HAS LZ(WEIGHT)=-1.00( 50.0%)  1.00( 50.0%) 
 MO     4 (    2) HAS LZ(WEIGHT)=-1.00( 50.0%)  1.00( 50.0%) 
 MO     5 (    3) HAS LZ(WEIGHT)= 0.00(100.0%) 
 MO     6 (    4) HAS LZ(WEIGHT)= 0.00(100.0%) 
 MO     7 (    4) HAS LZ(WEIGHT)=-1.00( 50.0%)  1.00( 50.0%) 
 MO     8 (    4) HAS LZ(WEIGHT)=-1.00( 50.0%)  1.00( 50.0%) 
 MO     9 (    5) HAS LZ(WEIGHT)= 0.00(100.0%) 
 MO    10 (    5) HAS LZ(WEIGHT)=-2.00( 50.0%)  2.00( 50.0%) 
 MO    11 (    5) HAS LZ(WEIGHT)=-2.00( 50.0%)  2.00( 50.0%) 
 MO    12 (    5) HAS LZ(WEIGHT)=-1.00( 50.0%)  1.00( 50.0%) 
 MO    13 (    5) HAS LZ(WEIGHT)=-1.00( 50.0%)  1.00( 50.0%) 
 MO    14 (    6) HAS LZ(WEIGHT)=-3.00( 18.8%) -1.00( 31.2%)  1.00( 31.2%)  3.00( 18.8%) 
 MO    15 (    6) HAS LZ(WEIGHT)=-3.00( 18.8%) -1.00( 31.2%)  1.00( 31.2%)  3.00( 18.8%) 
 MO    16 (    6) HAS LZ(WEIGHT)=-2.00( 50.0%)  2.00( 50.0%) 
 MO    17 (    6) HAS LZ(WEIGHT)=-3.00( 31.2%) -1.00( 18.8%)  1.00( 18.8%)  3.00( 31.2%) 
 MO    18 (    6) HAS LZ(WEIGHT)= 0.00(100.0%) 
 MO    19 (    6) HAS LZ(WEIGHT)=-3.00( 31.2%) -1.00( 18.8%)  1.00( 18.8%)  3.00( 31.2%) 
 MO    20 (    6) HAS LZ(WEIGHT)=-2.00( 50.0%)  2.00( 50.0%) 
 MO    21 (    7) HAS LZ(WEIGHT)=-2.00( 50.0%)  2.00( 50.0%) 
 MO    22 (    7) HAS LZ(WEIGHT)=-1.00( 50.0%)  1.00( 50.0%) 
 MO    23 (    7) HAS LZ(WEIGHT)=-1.00( 50.0%)  1.00( 50.0%) 
 MO    24 (    7) HAS LZ(WEIGHT)= 0.00(100.0%) 
 MO    25 (    7) HAS LZ(WEIGHT)=-2.00( 50.0%)  2.00( 50.0%) 
 MO    26 (    8) HAS LZ(WEIGHT)= 0.00(100.0%) 
 MO    27 (    8) HAS LZ(WEIGHT)=-1.00( 50.0%)  1.00( 50.0%) 
 MO    28 (    8) HAS LZ(WEIGHT)=-1.00( 50.0%)  1.00( 50.0%) 
 MO    29 (    9) HAS LZ(WEIGHT)= 0.00(100.0%) 

          ------------
          EIGENVECTORS
          ------------

                      1          2          3          4          5
                   -0.2057    -0.0708    -0.0708    -0.0708     0.1513
                     A          A          A          A          A   
    1  BE 1  S    1.061221   0.000000   0.000000   0.000000  -2.252177
    2  BE 1  X    0.000000   0.000000   0.000000   1.162231   0.000000
    3  BE 1  Y    0.000000   0.000000   1.162232   0.000000   0.000000
    4  BE 1  Z    0.000000   1.162232   0.000000   0.000000   0.000000
    5  BE 1  S   -0.009085   0.000000   0.000000   0.000000  -0.366360
    6  BE 1  S   -0.057538   0.000000   0.000000   0.000000   2.663747
    7  BE 1  X    0.000000   0.000000   0.000000  -0.035664   0.000000
    8  BE 1  Y    0.000000   0.000000  -0.035664   0.000000   0.000000
    9  BE 1  Z    0.000000  -0.035664   0.000000   0.000000   0.000000
   10  BE 1  X    0.000000   0.000000   0.000000  -0.163253   0.000000
   11  BE 1  Y    0.000000   0.000000  -0.163255   0.000000   0.000000
   12  BE 1  Z    0.000000  -0.163255   0.000000   0.000000   0.000000
   13  BE 1 XX    0.000000   0.000000   0.000000   0.000000   0.000000
   14  BE 1 YY    0.000000   0.000000   0.000000   0.000000   0.000000
   15  BE 1 ZZ    0.000000   0.000000   0.000000   0.000000   0.000000
   16  BE 1 XY    0.000000   0.000000   0.000000   0.000000   0.000000
   17  BE 1 XZ    0.000000   0.000000   0.000000   0.000000   0.000000
   18  BE 1 YZ    0.000000   0.000000   0.000000   0.000000   0.000000
   19  BE 1 XX    0.000000   0.000000   0.000000   0.000000   0.000000
   20  BE 1 YY    0.000000   0.000000   0.000000   0.000000   0.000000
   21  BE 1 ZZ    0.000000   0.000000   0.000000   0.000000   0.000000
   22  BE 1 XY    0.000000   0.000000   0.000000   0.000000   0.000000
   23  BE 1 XZ    0.000000   0.000000   0.000000   0.000000   0.000000
   24  BE 1 YZ    0.000000   0.000000   0.000000   0.000000   0.000000
   25  BE 1 XXX   0.000000   0.000000   0.000000   0.000000   0.000000
   26  BE 1 YYY   0.000000   0.000000   0.000000   0.000000   0.000000
   27  BE 1 ZZZ   0.000000   0.000000   0.000000   0.000000   0.000000
   28  BE 1 XXY   0.000000   0.000000  -0.000000   0.000000   0.000000
   29  BE 1 XXZ   0.000000  -0.000000   0.000000   0.000000   0.000000
   30  BE 1 YYX   0.000000   0.000000   0.000000  -0.000000   0.000000
   31  BE 1 YYZ   0.000000  -0.000000   0.000000   0.000000   0.000000
   32  BE 1 ZZX   0.000000   0.000000   0.000000  -0.000000   0.000000
   33  BE 1 ZZY   0.000000   0.000000  -0.000000   0.000000   0.000000
   34  BE 1 XYZ   0.000000   0.000000   0.000000   0.000000   0.000000

                      6          7          8          9         10
                    0.2110     0.2110     0.2110     0.3080     0.3080
                     A          A          A          A          A   
    1  BE 1  S    0.000000   0.000000   0.000000   0.000000   0.000000
    2  BE 1  X    0.000000   0.000000  -2.211115   0.000000   0.000000
    3  BE 1  Y    0.000000  -2.211114   0.000000   0.000000   0.000000
    4  BE 1  Z   -2.211114   0.000000   0.000000   0.000000   0.000000
    5  BE 1  S    0.000000   0.000000   0.000000   0.000000   0.000000
    6  BE 1  S    0.000000   0.000000   0.000000   0.000000   0.000000
    7  BE 1  X    0.000000   0.000000   0.383203   0.000000   0.000000
    8  BE 1  Y    0.000000   0.383203   0.000000   0.000000   0.000000
    9  BE 1  Z    0.383203   0.000000   0.000000   0.000000   0.000000
   10  BE 1  X    0.000000   0.000000   2.311072   0.000000   0.000000
   11  BE 1  Y    0.000000   2.311072   0.000000   0.000000   0.000000
   12  BE 1  Z    2.311072   0.000000   0.000000   0.000000   0.000000
   13  BE 1 XX    0.000000   0.000000   0.000000   0.086719  -0.150201
   14  BE 1 YY    0.000000   0.000000   0.000000   0.086719   0.150201
   15  BE 1 ZZ    0.000000   0.000000   0.000000  -0.173438   0.000000
   16  BE 1 XY    0.000000   0.000000   0.000000   0.000000   0.000000
   17  BE 1 XZ    0.000000   0.000000   0.000000   0.000000   0.000000
   18  BE 1 YZ    0.000000   0.000000   0.000000   0.000000   0.000000
   19  BE 1 XX    0.000000   0.000000   0.000000  -0.564101   0.977052
   20  BE 1 YY    0.000000   0.000000   0.000000  -0.564101  -0.977052
   21  BE 1 ZZ    0.000000   0.000000   0.000000   1.128203   0.000000
   22  BE 1 XY    0.000000   0.000000   0.000000   0.000000   0.000000
   23  BE 1 XZ    0.000000   0.000000   0.000000   0.000000   0.000000
   24  BE 1 YZ    0.000000   0.000000   0.000000   0.000000   0.000000
   25  BE 1 XXX   0.000000   0.000000  -0.000000   0.000000   0.000000
   26  BE 1 YYY   0.000000  -0.000000   0.000000   0.000000   0.000000
   27  BE 1 ZZZ  -0.000000   0.000000   0.000000   0.000000   0.000000
   28  BE 1 XXY   0.000000   0.000000   0.000000   0.000000   0.000000
   29  BE 1 XXZ   0.000000   0.000000   0.000000   0.000000   0.000000
   30  BE 1 YYX   0.000000   0.000000   0.000000   0.000000   0.000000
   31  BE 1 YYZ   0.000000   0.000000   0.000000   0.000000   0.000000
   32  BE 1 ZZX   0.000000   0.000000   0.000000   0.000000   0.000000
   33  BE 1 ZZY   0.000000   0.000000   0.000000   0.000000   0.000000
   34  BE 1 XYZ   0.000000   0.000000   0.000000   0.000000   0.000000

                     11         12         13         14         15
                    0.3080     0.3080     0.3080     1.0688     1.0688
                     A          A          A          A          A   
    1  BE 1  S    0.000000   0.000000   0.000000   0.000000   0.000000
    2  BE 1  X    0.000000   0.000000   0.000000   0.000000   0.000000
    3  BE 1  Y    0.000000   0.000000   0.000000   0.000000   0.000000
    4  BE 1  Z    0.000000   0.000000   0.000000   0.000000   0.000000
    5  BE 1  S    0.000000   0.000000   0.000000   0.000000   0.000000
    6  BE 1  S    0.000000   0.000000   0.000000   0.000000   0.000000
    7  BE 1  X    0.000000   0.000000   0.000000   0.000000   0.000000
    8  BE 1  Y    0.000000   0.000000   0.000000   0.000000   0.000000
    9  BE 1  Z    0.000000   0.000000   0.000000   0.000000   0.000000
   10  BE 1  X    0.000000   0.000000   0.000000   0.000000   0.000000
   11  BE 1  Y    0.000000   0.000000   0.000000   0.000000   0.000000
   12  BE 1  Z    0.000000   0.000000   0.000000   0.000000   0.000000
   13  BE 1 XX    0.000000   0.000000   0.000000   0.000000   0.000000
   14  BE 1 YY    0.000000   0.000000   0.000000   0.000000   0.000000
   15  BE 1 ZZ    0.000000   0.000000   0.000000   0.000000   0.000000
   16  BE 1 XY   -0.173438   0.000000   0.000000   0.000000   0.000000
   17  BE 1 XZ    0.000000   0.000000  -0.173438   0.000000   0.000000
   18  BE 1 YZ    0.000000  -0.173438   0.000000   0.000000   0.000000
   19  BE 1 XX    0.000000   0.000000   0.000000   0.000000   0.000000
   20  BE 1 YY    0.000000   0.000000   0.000000   0.000000   0.000000
   21  BE 1 ZZ    0.000000   0.000000   0.000000   0.000000   0.000000
   22  BE 1 XY    1.128203   0.000000   0.000000   0.000000   0.000000
   23  BE 1 XZ    0.000000   0.000000   1.128203   0.000000   0.000000
   24  BE 1 YZ    0.000000   1.128203   0.000000   0.000000   0.000000
   25  BE 1 XXX   0.000000   0.000000   0.000000  -0.000001   0.000000
   26  BE 1 YYY   0.000000   0.000000   0.000000   0.000000  -0.000001
   27  BE 1 ZZZ   0.000000   0.000000   0.000000   0.000000   0.000000
   28  BE 1 XXY   0.000000   0.000000   0.000000   0.000000   0.866026
   29  BE 1 XXZ   0.000000   0.000000   0.000000   0.000000   0.000000
   30  BE 1 YYX   0.000000   0.000000   0.000000   0.866026   0.000000
   31  BE 1 YYZ   0.000000   0.000000   0.000000   0.000000   0.000000
   32  BE 1 ZZX   0.000000   0.000000   0.000000  -0.866025   0.000000
   33  BE 1 ZZY   0.000000   0.000000   0.000000   0.000000  -0.866025
   34  BE 1 XYZ   0.000000   0.000000   0.000000   0.000000   0.000000

                     16         17         18         19         20
                    1.0688     1.0688     1.0688     1.0688     1.0688
                     A          A          A          A          A   
    1  BE 1  S    0.000000   0.000000   0.000000   0.000000   0.000000
    2  BE 1  X    0.000000   0.000000   0.000000  -0.000000   0.000000
    3  BE 1  Y    0.000000  -0.000000   0.000000   0.000000   0.000000
    4  BE 1  Z    0.000000   0.000000  -0.000000   0.000000   0.000000
    5  BE 1  S    0.000000   0.000000   0.000000   0.000000   0.000000
    6  BE 1  S    0.000000   0.000000   0.000000   0.000000   0.000000
    7  BE 1  X    0.000000   0.000000   0.000000   0.000000   0.000000
    8  BE 1  Y    0.000000   0.000000   0.000000   0.000000   0.000000
    9  BE 1  Z    0.000000   0.000000   0.000000   0.000000   0.000000
   10  BE 1  X    0.000000   0.000000   0.000000  -0.000000   0.000000
   11  BE 1  Y    0.000000  -0.000000   0.000000   0.000000   0.000000
   12  BE 1  Z    0.000000   0.000000  -0.000000   0.000000   0.000000
   13  BE 1 XX    0.000000   0.000000   0.000000   0.000000   0.000000
   14  BE 1 YY    0.000000   0.000000   0.000000   0.000000   0.000000
   15  BE 1 ZZ    0.000000   0.000000   0.000000   0.000000   0.000000
   16  BE 1 XY    0.000000   0.000000   0.000000   0.000000   0.000000
   17  BE 1 XZ    0.000000   0.000000   0.000000   0.000000   0.000000
   18  BE 1 YZ    0.000000   0.000000   0.000000   0.000000   0.000000
   19  BE 1 XX    0.000000   0.000000   0.000000   0.000000   0.000000
   20  BE 1 YY    0.000000   0.000000   0.000000   0.000000   0.000000
   21  BE 1 ZZ    0.000000   0.000000   0.000000   0.000000   0.000000
   22  BE 1 XY    0.000000   0.000000   0.000000   0.000000   0.000000
   23  BE 1 XZ    0.000000   0.000000   0.000000   0.000000   0.000000
   24  BE 1 YZ    0.000000   0.000000   0.000000   0.000000   0.000000
   25  BE 1 XXX   0.000000   0.000000   0.000000   1.000000   0.000000
   26  BE 1 YYY   0.000000   1.000000   0.000000   0.000000   0.000000
   27  BE 1 ZZZ   0.000000   0.000000   1.000000   0.000000   0.000000
   28  BE 1 XXY   0.000000  -0.670820   0.000000   0.000000   0.000000
   29  BE 1 XXZ   0.866025   0.000000  -0.670820   0.000000   0.000000
   30  BE 1 YYX   0.000000   0.000000   0.000000  -0.670820   0.000000
   31  BE 1 YYZ  -0.866025   0.000000  -0.670820   0.000000   0.000000
   32  BE 1 ZZX   0.000000   0.000000   0.000000  -0.670821   0.000000
   33  BE 1 ZZY   0.000000  -0.670821   0.000000   0.000000   0.000000
   34  BE 1 XYZ   0.000000   0.000000   0.000000   0.000000   1.000000

                     21         22         23         24         25
                    1.1975     1.1975     1.1975     1.1975     1.1975
                     A          A          A          A          A   
    1  BE 1  S    0.000000   0.000000   0.000000   0.000000   0.000000
    2  BE 1  X    0.000000   0.000000   0.000000   0.000000   0.000000
    3  BE 1  Y    0.000000   0.000000   0.000000   0.000000   0.000000
    4  BE 1  Z    0.000000   0.000000   0.000000   0.000000   0.000000
    5  BE 1  S    0.000000   0.000000   0.000000   0.000000   0.000000
    6  BE 1  S    0.000000   0.000000   0.000000   0.000000   0.000000
    7  BE 1  X    0.000000   0.000000   0.000000   0.000000   0.000000
    8  BE 1  Y    0.000000   0.000000   0.000000   0.000000   0.000000
    9  BE 1  Z    0.000000   0.000000   0.000000   0.000000   0.000000
   10  BE 1  X    0.000000   0.000000   0.000000   0.000000   0.000000
   11  BE 1  Y    0.000000   0.000000   0.000000   0.000000   0.000000
   12  BE 1  Z    0.000000   0.000000   0.000000   0.000000   0.000000
   13  BE 1 XX    0.000000   0.000000   0.000000  -0.784964   1.359597
   14  BE 1 YY    0.000000   0.000000   0.000000  -0.784964  -1.359597
   15  BE 1 ZZ    0.000000   0.000000   0.000000   1.569927   0.000000
   16  BE 1 XY    1.569927   0.000000   0.000000   0.000000   0.000000
   17  BE 1 XZ    0.000000   0.000000   1.569927   0.000000   0.000000
   18  BE 1 YZ    0.000000   1.569927   0.000000   0.000000   0.000000
   19  BE 1 XX    0.000000   0.000000   0.000000   0.552700  -0.957305
   20  BE 1 YY    0.000000   0.000000   0.000000   0.552700   0.957305
   21  BE 1 ZZ    0.000000   0.000000   0.000000  -1.105400   0.000000
   22  BE 1 XY   -1.105400   0.000000   0.000000   0.000000   0.000000
   23  BE 1 XZ    0.000000   0.000000  -1.105400   0.000000   0.000000
   24  BE 1 YZ    0.000000  -1.105400   0.000000   0.000000   0.000000
   25  BE 1 XXX   0.000000   0.000000   0.000000   0.000000   0.000000
   26  BE 1 YYY   0.000000   0.000000   0.000000   0.000000   0.000000
   27  BE 1 ZZZ   0.000000   0.000000   0.000000   0.000000   0.000000
   28  BE 1 XXY   0.000000   0.000000   0.000000   0.000000   0.000000
   29  BE 1 XXZ   0.000000   0.000000   0.000000   0.000000   0.000000
   30  BE 1 YYX   0.000000   0.000000   0.000000   0.000000   0.000000
   31  BE 1 YYZ   0.000000   0.000000   0.000000   0.000000   0.000000
   32  BE 1 ZZX   0.000000   0.000000   0.000000   0.000000   0.000000
   33  BE 1 ZZY   0.000000   0.000000   0.000000   0.000000   0.000000
   34  BE 1 XYZ   0.000000   0.000000   0.000000   0.000000   0.000000

                     26         27         28         29
                    1.8401     1.8401     1.8401     2.1727
                     A          A          A          A   
    1  BE 1  S    0.000000   0.000000   0.000000   4.266682
    2  BE 1  X    0.000000   0.000000  -0.565195   0.000000
    3  BE 1  Y    0.000000  -0.565195   0.000000   0.000000
    4  BE 1  Z   -0.565194   0.000000   0.000000   0.000000
    5  BE 1  S    0.000000   0.000000   0.000000  -1.818286
    6  BE 1  S    0.000000   0.000000   0.000000  -3.100026
    7  BE 1  X    0.000000   0.000000  -1.033804   0.000000
    8  BE 1  Y    0.000000  -1.033804   0.000000   0.000000
    9  BE 1  Z   -1.033804   0.000000   0.000000   0.000000
   10  BE 1  X    0.000000   0.000000   1.074713   0.000000
   11  BE 1  Y    0.000000   1.074713   0.000000   0.000000
   12  BE 1  Z    1.074713   0.000000   0.000000   0.000000
   13  BE 1 XX    0.000000   0.000000   0.000000   0.000000
   14  BE 1 YY    0.000000   0.000000   0.000000   0.000000
   15  BE 1 ZZ    0.000000   0.000000   0.000000   0.000000
   16  BE 1 XY    0.000000   0.000000   0.000000   0.000000
   17  BE 1 XZ    0.000000   0.000000   0.000000   0.000000
   18  BE 1 YZ    0.000000   0.000000   0.000000   0.000000
   19  BE 1 XX    0.000000   0.000000   0.000000   0.000000
   20  BE 1 YY    0.000000   0.000000   0.000000   0.000000
   21  BE 1 ZZ    0.000000   0.000000   0.000000   0.000000
   22  BE 1 XY    0.000000   0.000000   0.000000   0.000000
   23  BE 1 XZ    0.000000   0.000000   0.000000   0.000000
   24  BE 1 YZ    0.000000   0.000000   0.000000   0.000000
   25  BE 1 XXX   0.000000   0.000000   0.000000   0.000000
   26  BE 1 YYY   0.000000   0.000000   0.000000   0.000000
   27  BE 1 ZZZ   0.000000   0.000000   0.000000   0.000000
   28  BE 1 XXY   0.000000  -0.000000   0.000000   0.000000
   29  BE 1 XXZ  -0.000000   0.000000   0.000000   0.000000
   30  BE 1 YYX   0.000000   0.000000  -0.000000   0.000000
   31  BE 1 YYZ  -0.000000   0.000000   0.000000   0.000000
   32  BE 1 ZZX   0.000000   0.000000  -0.000000   0.000000
   33  BE 1 ZZY   0.000000  -0.000000   0.000000   0.000000
   34  BE 1 XYZ   0.000000   0.000000   0.000000   0.000000
 ...... END OF ROHF CALCULATION ......
 STEP CPU TIME =     0.46 TOTAL CPU TIME =        0.5 (    0.0 MIN)
 TOTAL WALL CLOCK TIME=        1.1 SECONDS, CPU UTILIZATION IS  44.64%

     ---------------------------------------------------------------------
     PROPERTIES FOR THE PBE      DFT FUNCTIONAL (ROHF TYPE) DENSITY MATRIX
     ---------------------------------------------------------------------

          -----------------
          ENERGY COMPONENTS
          -----------------

         WAVEFUNCTION NORMALIZATION =       1.0000000000

                ONE ELECTRON ENERGY =      -1.3081430492
                TWO ELECTRON ENERGY =       0.3128899788
           NUCLEAR REPULSION ENERGY =       0.0000000000
                                      ------------------
                       TOTAL ENERGY =      -0.9952530704

 ELECTRON-ELECTRON POTENTIAL ENERGY =       0.3128899788
  NUCLEUS-ELECTRON POTENTIAL ENERGY =      -1.6356541485
   NUCLEUS-NUCLEUS POTENTIAL ENERGY =       0.0000000000
                                      ------------------
             TOTAL POTENTIAL ENERGY =      -1.3227641697
               TOTAL KINETIC ENERGY =       0.3275110993
                 VIRIAL RATIO (V/T) =       4.0388376840

          ---------------------------------------
          MULLIKEN AND LOWDIN POPULATION ANALYSES
          ---------------------------------------

     ATOMIC MULLIKEN POPULATION IN EACH MOLECULAR ORBITAL

                      1

                  2.000000

    1             2.000000

          MULLIKEN SPHERICAL HARMONIC POPULATIONS
       ATOM           S       P       D      F      G      H      I    TOTAL
    1 BE            1.00    0.00    0.00   0.00   0.00   0.00   0.00    1.00

          MULLIKEN SPHERICAL HARMONIC POPULATIONS
       ATOM           S       P       D      F      G      H      I    TOTAL
    1 BE            1.00    0.00    0.00   0.00   0.00   0.00   0.00    1.00

     ATOMIC SPIN POPULATION (ALPHA MINUS BETA)
       ATOM         MULL.POP.                    LOW.POP.
    1 BE            0.000000                     0.000000

               ----- POPULATIONS IN EACH AO -----
                             MULLIKEN      LOWDIN
              1  BE 1  S      2.12221     0.44893
              2  BE 1  X      0.00000     0.00000
              3  BE 1  Y      0.00000     0.00000
              4  BE 1  Z      0.00000     0.00000
              5  BE 1  S     -0.01332     0.18120
              6  BE 1  S     -0.10889     0.41271
              7  BE 1  X      0.00000     0.00000
              8  BE 1  Y      0.00000     0.00000
              9  BE 1  Z      0.00000     0.00000
             10  BE 1  X      0.00000     0.00000
             11  BE 1  Y      0.00000     0.00000
             12  BE 1  Z      0.00000     0.00000
             13  BE 1 XX      0.00000     0.14947
             14  BE 1 YY      0.00000     0.14947
             15  BE 1 ZZ      0.00000     0.14947
             16  BE 1 XY      0.00000     0.00000
             17  BE 1 XZ      0.00000     0.00000
             18  BE 1 YZ      0.00000     0.00000
             19  BE 1 XX      0.00000     0.16959
             20  BE 1 YY      0.00000     0.16959
             21  BE 1 ZZ      0.00000     0.16959
             22  BE 1 XY      0.00000     0.00000
             23  BE 1 XZ      0.00000     0.00000
             24  BE 1 YZ      0.00000     0.00000
             25  BE 1 XXX     0.00000     0.00000
             26  BE 1 YYY     0.00000     0.00000
             27  BE 1 ZZZ     0.00000     0.00000
             28  BE 1 XXY     0.00000     0.00000
             29  BE 1 XXZ     0.00000     0.00000
             30  BE 1 YYX     0.00000     0.00000
             31  BE 1 YYZ     0.00000     0.00000
             32  BE 1 ZZX     0.00000     0.00000
             33  BE 1 ZZY     0.00000     0.00000
             34  BE 1 XYZ     0.00000     0.00000

          ----- MULLIKEN ATOMIC OVERLAP POPULATIONS -----
          (OFF-DIAGONAL ELEMENTS NEED TO BE MULTIPLIED BY 2)

             1

    1    2.0000000

          TOTAL MULLIKEN AND LOWDIN ATOMIC POPULATIONS
       ATOM         MULL.POP.    CHARGE          LOW.POP.     CHARGE
    1 BE            2.000000    0.000000         2.000000   -0.000000

          MULLIKEN SPHERICAL HARMONIC POPULATIONS
       ATOM           S       P       D      F      G      H      I    TOTAL
    1 BE            2.00    0.00    0.00   0.00   0.00   0.00   0.00    2.00

          -------------------------------
          BOND ORDER AND VALENCE ANALYSIS     BOND ORDER THRESHOLD=0.050
          -------------------------------

                   BOND                       BOND                       BOND
  ATOM PAIR DIST  ORDER      ATOM PAIR DIST  ORDER      ATOM PAIR DIST  ORDER

                       TOTAL       BONDED        FREE
      ATOM            VALENCE     VALENCE     VALENCE
    1 BE                0.000       0.000       0.000

          -----------------------------------------
          ATOMIC SPIN DENSITY AT THE NUCLEUS (A.U.)
          -----------------------------------------
                            SPIN DENS    ALPHA DENS     BETA DENS
    1  BE           2.0     0.0000000       0.00309       0.00309

          ---------------------
          ELECTROSTATIC MOMENTS
          ---------------------

 POINT   1           X           Y           Z (BOHR)    CHARGE
                 0.000000    0.000000    0.000000        0.00 (A.U.)
         DX          DY          DZ         /D/  (DEBYE)
     0.000000    0.000000    0.000000    0.000000
 ...... END OF PROPERTY EVALUATION ......
 STEP CPU TIME =     0.00 TOTAL CPU TIME =        0.5 (    0.0 MIN)
 TOTAL WALL CLOCK TIME=        1.1 SECONDS, CPU UTILIZATION IS  43.48%
                580000  WORDS OF DYNAMIC MEMORY USED
 EXECUTION OF GAMESS TERMINATED NORMALLY Sun Jun 30 14:36:32 2019
 DDI: 263624 bytes (0.3 MB / 0 MWords) used by master data server.

 ----------------------------------------
 CPU timing information for all processes
 ========================================
 0: 0.461 + 0.43 = 0.505
 ----------------------------------------
 ddikick.x: exited gracefully.
----- accounting info -----
Files used on the master node login2.stampede2.tacc.utexas.edu were:
-rw------- 1 aannabe G-801537    1303 Jun 30 14:36 /tmp/Be.F05
-rw------- 1 aannabe G-801537  360032 Jun 30 14:36 /tmp/Be.F08
-rw------- 1 aannabe G-801537 2519440 Jun 30 14:36 /tmp/Be.F10
Sun Jun 30 14:36:37 CDT 2019
0.237u 0.177s 0:06.91 5.7%	0+0k 0+32io 0pf+0w
