
 Primary working directories    : /global/cscratch1/sd/aannabe
 Secondary working directories  : /global/cscratch1/sd/aannabe
 Wavefunction directory         : /global/homes/a/aannabe/wfu/
 Main file repository           : /global/cscratch1/sd/aannabe/

 SHA1      : 2873118e99aab1bc19f5b6fc1784693c06d15c95
 NAME      : 2015.1.8
 ARCHNAME  : linux/x86_64
 FC        : /opt/cray/pe/craype/2.5.5/bin/ftn
 BLASLIB   : -Wl,-_start-group /opt/intel/compilers_and_libraries_2016.3.210/linux/mkl/lib/intel64/libmkl_intel_ilp64.a /opt/intel/compilers_and_libraries_2016.3.210/linux/mkl/lib/intel64/libmkl_intel_thread.a /opt/intel/compilers_and_libraries_2016.3.210/linux/mkl/lib/intel64/libmkl_core.a -Wl,-_end-group
 id        : lbl

 Nodes     nprocs
 nid00494     1

 Using customized tuning parameters: mindgm=8; mindgv=16; mindgc=4; mindgr=1; noblas=0; minvec=7
 default implementation of scratch files=df  

 ***,Ni
 memory,512,m
 gthresh,twoint=1.e-12
 
 gprint,basis,orbitals
 gexpec,ekin,pot
 
 angstrom
 geometry={
 1                                                                               ! Number of atoms
 Ni 0.0 0.0 0.0
 }
 
 basis={
 Including file /global/homes/a/aannabe/docs/totals/pps/Ni.pp
 Including file /global/homes/a/aannabe/docs/totals/basis/aug-cc-pVnZ/Ni_dz.basis
 }
 
 {hf
 wf,18,6,2
 occ,4,1,1,1,1,1,1,0
 open,1.4,1.7
 sym,1,1,1,3,2
 }
 scf(i)=energy
 
 _CC_NORM_MAX=2.0
 {ci
 maxit,100
 core
 }
 posthf(i)=energy
 
 table,scf,posthf,ekin,pot
 save,2.csv,new
 
 

 Variables initialized (889), CPU time= 0.00 sec
 Commands  initialized (702), CPU time= 0.02 sec, 572 directives.
 Default parameters read. Elapsed time= 0.13 sec

 Checking input...
 Passed
1


                                         ***  PROGRAM SYSTEM MOLPRO  ***
                                       Copyright, TTI GmbH Stuttgart, 2015
                                    Version 2015.1 linked Sep  7 2016 23:09:38


 **********************************************************************************************************************************
 LABEL *   Ni                                                                            
  64 bit serial version                                                                  DATE: 17-Sep-18          TIME: 12:16:50  
 **********************************************************************************************************************************

 SHA1:             2873118e99aab1bc19f5b6fc1784693c06d15c95
 **********************************************************************************************************************************

 THRESHOLDS:

 ZERO    =  1.00D-12  ONEINT  =  1.00D-12  TWOINT  =  1.00D-12  PREFAC  =  1.00D-14  LOCALI  =  1.00D-09  EORDER  =  1.00D-04
 ENERGY  =  0.00D+00  ETEST   =  0.00D+00  EDENS   =  0.00D+00  THRDEDEF=  1.00D-06  GRADIENT=  1.00D-02  STEP    =  1.00D-03
 ORBITAL =  1.00D-05  CIVEC   =  1.00D-05  COEFF   =  1.00D-04  PRINTCI =  5.00D-02  PUNCHCI =  9.90D+01  OPTGRAD =  3.00D-04
 OPTENERG=  1.00D-06  OPTSTEP =  3.00D-04  THRGRAD =  1.00D-10  COMPRESS=  1.00D-11  VARMIN  =  1.00D-07  VARMAX  =  1.00D-03
 THRDOUB =  0.00D+00  THRDIV  =  1.00D-05  THRRED  =  1.00D-07  THRPSP  =  1.00D+00  THRDC   =  1.00D-10  THRCS   =  1.00D-10
 THRNRM  =  1.00D-08  THREQ   =  0.00D+00  THRDE   =  1.00D+00  THRREF  =  1.00D-05  SPARFAC =  1.00D+00  THRDLP  =  1.00D-07
 THRDIA  =  1.00D-10  THRDLS  =  1.00D-07  THRGPS  =  0.00D+00  THRKEX  =  0.00D+00  THRDIS  =  2.00D-01  THRVAR  =  1.00D-10
 THRLOC  =  1.00D-06  THRGAP  =  1.00D-06  THRLOCT = -1.00D+00  THRGAPT = -1.00D+00  THRORB  =  1.00D-06  THRMLTP =  0.00D+00
 THRCPQCI=  1.00D-10  KEXTA   =  0.00D+00  THRCOARS=  0.00D+00  SYMTOL  =  1.00D-06  GRADTOL =  1.00D-06  THROVL  =  1.00D-08
 THRORTH =  1.00D-08  GRID    =  1.00D-06  GRIDMAX =  1.00D-03  DTMAX   =  0.00D+00  THROCCDE=  1.00D-01  THROCCDE=  1.00D-01



 ZUNIT=ANG
 

Geometry recognized as XYZ


 Variable memory set to  512000000 words,  buffer space   230000 words

 SETTING BASIS          =    USERDEF


 Recomputing integrals since basis changed


 Using spherical harmonics



 PROGRAM * SEWARD (Integral evaluation for generally contracted gaussian basis sets)     Author: Roland Lindh, 1990

 Geometry written to block  1 of record 700

 Orientation using atomic masses  
 Molecule type: Atom
 Symmetry elements: X,Y,Z
 Rotational constants:       0.0000000      0.0000000      0.0000000 GHz  (calculated with average atomic masses)

 Point group  D2h 



 ATOMIC COORDINATES

 NR  ATOM    CHARGE       X              Y              Z

   1  NI     18.00    0.000000000    0.000000000    0.000000000


          NI  CORE POTENTIAL

          d POTENTIAL

 POWERS             1              3              2              2
 EXPONENTIALS   28.26300       26.93603       27.08601       12.21300    
 COEFFICIENTS   18.00000       508.7340      -220.1000      -2.134933    

          s - d POTENTIAL

 POWERS             2              2
 EXPONENTIALS   26.43202       11.74897    
 COEFFICIENTS   321.2400       60.34701    

          p - d POTENTIAL

 POWERS             2              2
 EXPONENTIALS   29.49300       11.55698    
 COEFFICIENTS   236.5400       44.39699    


 BASIS DATA

   Nr Sym  Nuc  Type         Exponents   Contraction coefficients

    1.1 Ag    1  1s          97.161835     0.000709   -0.000140    0.000121    0.000000
    2.1 Ag                   51.187866    -0.012399    0.002756    0.003322    0.000000
    3.1 Ag                   26.996725     0.107220   -0.025482   -0.045785    0.000000
    4.1 Ag                   15.523536    -0.124556    0.032182    0.053415    0.000000
                              8.916168    -0.351023    0.086226    0.222270    0.000000
                              4.795806    -0.025758    0.001104   -0.073065    0.000000
                              2.619926     0.498948   -0.135790   -0.293998    0.000000
                              1.330111     0.568986   -0.215724   -0.668938    0.000000
                              0.668901     0.191121   -0.158367    0.297504    0.000000
                              0.230439     0.010278    0.143499    1.233748    0.000000
                              0.121518    -0.003627    0.443672    0.129317    0.000000
                              0.057951     0.001295    0.472558   -0.603407    0.000000
                              0.027201    -0.000307    0.110173   -0.533062    1.000000
    5.1 Ag    1  1s           0.013000     1.000000
    6.1 Ag    1  3d0        177.900125     0.000049
                             57.372112     0.007519
                             29.881432     0.036455
                             13.971757     0.086901
                              6.841152     0.180568
                              3.379983     0.268187
                              1.651827     0.296756
                              0.799251     0.251558
                              0.388057     0.162319
                              0.191191     0.072119
                              0.093358     0.023689
    7.1 Ag    1  3d2+       177.900125     0.000049
                             57.372112     0.007519
                             29.881432     0.036455
                             13.971757     0.086901
                              6.841152     0.180568
                              3.379983     0.268187
                              1.651827     0.296756
                              0.799251     0.251558
                              0.388057     0.162319
                              0.191191     0.072119
                              0.093358     0.023689
    8.1 Ag    1  3d0        177.900125    -0.000053
                             57.372112    -0.008850
                             29.881432    -0.041916
                             13.971757    -0.104691
                              6.841152    -0.219464
                              3.379983    -0.283712
                              1.651827    -0.122127
                              0.799251     0.190123
                              0.388057     0.376598
                              0.191191     0.295122
                              0.093358     0.178252
    9.1 Ag    1  3d2+       177.900125    -0.000053
                             57.372112    -0.008850
                             29.881432    -0.041916
                             13.971757    -0.104691
                              6.841152    -0.219464
                              3.379983    -0.283712
                              1.651827    -0.122127
                              0.799251     0.190123
                              0.388057     0.376598
                              0.191191     0.295122
                              0.093358     0.178252
   10.1 Ag    1  3d0        177.900125     0.000000
                             57.372112     0.000000
                             29.881432     0.000000
                             13.971757     0.000000
                              6.841152     0.000000
                              3.379983     0.000000
                              1.651827     0.000000
                              0.799251     0.000000
                              0.388057     0.000000
                              0.191191     0.000000
                              0.093358     1.000000
   11.1 Ag    1  3d2+       177.900125     0.000000
                             57.372112     0.000000
                             29.881432     0.000000
                             13.971757     0.000000
                              6.841152     0.000000
                              3.379983     0.000000
                              1.651827     0.000000
                              0.799251     0.000000
                              0.388057     0.000000
                              0.191191     0.000000
                              0.093358     1.000000
   12.1 Ag    1  3d0          0.045000     1.000000
   13.1 Ag    1  3d2+         0.045000     1.000000
    1.2 B3u   1  2px        148.087630     0.000055    0.000027   -0.000237    0.000000
    2.2 B3u                  77.452187    -0.000548   -0.000088    0.001456    0.000000
    3.2 B3u                  40.915636     0.006979   -0.000773   -0.009745    0.000000
    4.2 B3u                  22.575667    -0.023658    0.003345    0.037799    0.000000
                             13.218268    -0.075682    0.019405    0.052521    0.000000
                              7.232093     0.027253   -0.014288   -0.035006    0.000000
                              4.054870     0.284778   -0.054527   -0.455577    0.000000
                              2.122089     0.427632   -0.116454   -0.368306    0.000000
                              1.092769     0.309937   -0.060236    0.100392    0.000000
                              0.548240     0.088535   -0.023928    1.076652    0.000000
                              0.238886     0.006427    0.347869   -0.045326    0.000000
                              0.084667     0.000708    0.522626   -0.703186    0.000000
                              0.038921     0.000186    0.276471    0.004580    1.000000
    5.2 B3u   1  2px          0.019000     1.000000
    6.2 B3u   1  4f1+         0.650562     1.000000
    7.2 B3u   1  4f3+         0.650562     1.000000
    8.2 B3u   1  4f1+         2.317543     1.000000
    9.2 B3u   1  4f3+         2.317543     1.000000
    1.3 B2u   1  2py        148.087630     0.000055    0.000027   -0.000237    0.000000
    2.3 B2u                  77.452187    -0.000548   -0.000088    0.001456    0.000000
    3.3 B2u                  40.915636     0.006979   -0.000773   -0.009745    0.000000
    4.3 B2u                  22.575667    -0.023658    0.003345    0.037799    0.000000
                             13.218268    -0.075682    0.019405    0.052521    0.000000
                              7.232093     0.027253   -0.014288   -0.035006    0.000000
                              4.054870     0.284778   -0.054527   -0.455577    0.000000
                              2.122089     0.427632   -0.116454   -0.368306    0.000000
                              1.092769     0.309937   -0.060236    0.100392    0.000000
                              0.548240     0.088535   -0.023928    1.076652    0.000000
                              0.238886     0.006427    0.347869   -0.045326    0.000000
                              0.084667     0.000708    0.522626   -0.703186    0.000000
                              0.038921     0.000186    0.276471    0.004580    1.000000
    5.3 B2u   1  2py          0.019000     1.000000
    6.3 B2u   1  4f1-         0.650562     1.000000
    7.3 B2u   1  4f3-         0.650562     1.000000
    8.3 B2u   1  4f1-         2.317543     1.000000
    9.3 B2u   1  4f3-         2.317543     1.000000
    1.4 B1g   1  3d2-       177.900125     0.000049   -0.000053    0.000000
    2.4 B1g                  57.372112     0.007519   -0.008850    0.000000
    3.4 B1g                  29.881432     0.036455   -0.041916    0.000000
                             13.971757     0.086901   -0.104691    0.000000
                              6.841152     0.180568   -0.219464    0.000000
                              3.379983     0.268187   -0.283712    0.000000
                              1.651827     0.296756   -0.122127    0.000000
                              0.799251     0.251558    0.190123    0.000000
                              0.388057     0.162319    0.376598    0.000000
                              0.191191     0.072119    0.295122    0.000000
                              0.093358     0.023689    0.178252    1.000000
    4.4 B1g   1  3d2-         0.045000     1.000000
    1.5 B1u   1  2pz        148.087630     0.000055    0.000027   -0.000237    0.000000
    2.5 B1u                  77.452187    -0.000548   -0.000088    0.001456    0.000000
    3.5 B1u                  40.915636     0.006979   -0.000773   -0.009745    0.000000
    4.5 B1u                  22.575667    -0.023658    0.003345    0.037799    0.000000
                             13.218268    -0.075682    0.019405    0.052521    0.000000
                              7.232093     0.027253   -0.014288   -0.035006    0.000000
                              4.054870     0.284778   -0.054527   -0.455577    0.000000
                              2.122089     0.427632   -0.116454   -0.368306    0.000000
                              1.092769     0.309937   -0.060236    0.100392    0.000000
                              0.548240     0.088535   -0.023928    1.076652    0.000000
                              0.238886     0.006427    0.347869   -0.045326    0.000000
                              0.084667     0.000708    0.522626   -0.703186    0.000000
                              0.038921     0.000186    0.276471    0.004580    1.000000
    5.5 B1u   1  2pz          0.019000     1.000000
    6.5 B1u   1  4f0          0.650562     1.000000
    7.5 B1u   1  4f2+         0.650562     1.000000
    8.5 B1u   1  4f0          2.317543     1.000000
    9.5 B1u   1  4f2+         2.317543     1.000000
    1.6 B2g   1  3d1+       177.900125     0.000049   -0.000053    0.000000
    2.6 B2g                  57.372112     0.007519   -0.008850    0.000000
    3.6 B2g                  29.881432     0.036455   -0.041916    0.000000
                             13.971757     0.086901   -0.104691    0.000000
                              6.841152     0.180568   -0.219464    0.000000
                              3.379983     0.268187   -0.283712    0.000000
                              1.651827     0.296756   -0.122127    0.000000
                              0.799251     0.251558    0.190123    0.000000
                              0.388057     0.162319    0.376598    0.000000
                              0.191191     0.072119    0.295122    0.000000
                              0.093358     0.023689    0.178252    1.000000
    4.6 B2g   1  3d1+         0.045000     1.000000
    1.7 B3g   1  3d1-       177.900125     0.000049   -0.000053    0.000000
    2.7 B3g                  57.372112     0.007519   -0.008850    0.000000
    3.7 B3g                  29.881432     0.036455   -0.041916    0.000000
                             13.971757     0.086901   -0.104691    0.000000
                              6.841152     0.180568   -0.219464    0.000000
                              3.379983     0.268187   -0.283712    0.000000
                              1.651827     0.296756   -0.122127    0.000000
                              0.799251     0.251558    0.190123    0.000000
                              0.388057     0.162319    0.376598    0.000000
                              0.191191     0.072119    0.295122    0.000000
                              0.093358     0.023689    0.178252    1.000000
    4.7 B3g   1  3d1-         0.045000     1.000000
    1.8 Au    1  4f2-         0.650562     1.000000
    2.8 Au    1  4f2-         2.317543     1.000000

 NUCLEAR CHARGE:                   18
 NUMBER OF PRIMITIVE AOS:         148
 NUMBER OF SYMMETRY AOS:          130
 NUMBER OF CONTRACTIONS:           54   (  13Ag  +   9B3u +   9B2u +   4B1g +   9B1u +   4B2g +   4B3g +   2Au  )
 NUMBER OF CORE ORBITALS:           4   (   1Ag  +   1B3u +   1B2u +   0B1g +   1B1u +   0B2g +   0B3g +   0Au  )
 NUMBER OF VALENCE ORBITALS:        6   (   3Ag  +   0B3u +   0B2u +   1B1g +   0B1u +   1B2g +   1B3g +   0Au  )


 NUCLEAR REPULSION ENERGY    0.00000000

 EXTRA SYMMETRY OF AOS IN SYMMETRY 1:   1 1 1 1 1 2 3 2 3 2   3 2 3
 EXTRA SYMMETRY OF AOS IN SYMMETRY 2:   1 1 1 1 1 2 3 2 3
 EXTRA SYMMETRY OF AOS IN SYMMETRY 3:   1 1 1 1 1 2 3 2 3
 EXTRA SYMMETRY OF AOS IN SYMMETRY 5:   1 1 1 1 1 2 3 2 3

 Eigenvalues of metric

         1 0.141E-01 0.132E+00 0.132E+00 0.205E+00 0.651E+00 0.651E+00 0.100E+01 0.101E+01
         2 0.429E-01 0.420E+00 0.574E+00 0.574E+00 0.838E+00 0.100E+01 0.143E+01 0.143E+01
         3 0.429E-01 0.420E+00 0.574E+00 0.574E+00 0.838E+00 0.100E+01 0.143E+01 0.143E+01
         4 0.132E+00 0.651E+00 0.101E+01 0.221E+01
         5 0.429E-01 0.420E+00 0.574E+00 0.574E+00 0.838E+00 0.100E+01 0.143E+01 0.143E+01
         6 0.132E+00 0.651E+00 0.101E+01 0.221E+01
         7 0.132E+00 0.651E+00 0.101E+01 0.221E+01
         8 0.574E+00 0.143E+01


 Contracted 2-electron integrals neglected if value below      1.0D-12
 AO integral compression algorithm  1   Integral accuracy      1.0D-12

     1.835 MB (compressed) written to integral file ( 61.9%)


 NUMBER OF SORTED TWO-ELECTRON INTEGRALS:     153544.     BUFFER LENGTH:  32768
 NUMBER OF SEGMENTS:   1  SEGMENT LENGTH:     153544      RECORD LENGTH: 524288

 Memory used in sort:       0.71 MW

 SORT1 READ      321044. AND WROTE      125920. INTEGRALS IN      1 RECORDS. CPU TIME:     0.01 SEC, REAL TIME:     0.02 SEC
 SORT2 READ      125920. AND WROTE      153544. INTEGRALS IN      7 RECORDS. CPU TIME:     0.02 SEC, REAL TIME:     0.05 SEC

 FILE SIZES:   FILE 1:    21.0 MBYTE,  FILE 4:     4.2 MBYTE,   TOTAL:     25.2 MBYTE

 OPERATOR DM      FOR CENTER  0  COORDINATES:    0.000000    0.000000    0.000000
 OPERATOR EKIN    FOR CENTER  0  COORDINATES:    0.000000    0.000000    0.000000
 OPERATOR POT     FOR CENTER  0  COORDINATES:    0.000000    0.000000    0.000000


 **********************************************************************************************************************************
 DATASETS  * FILE   NREC   LENGTH (MB)   RECORD NAMES
              1      20       19.93       500      610      700      900      950      970     1000      129      960     1100   
                                          VAR    BASINP    GEOM    SYMINP    ZMAT    AOBASIS   BASIS     P2S    ABASIS      S 
                                         1400     1410     1420     1200     1210     1080     1600     1650     1300     1700   
                                         EKIN       V       ECP      H0       H01     AOSYM     SMH    MOLCAS    ERIS     OPER   

 PROGRAMS   *        TOTAL       INT
 CPU TIMES  *         0.82      0.70
 REAL TIME  *         2.15 SEC
 DISK USED  *        25.51 MB      
 **********************************************************************************************************************************


 PROGRAM * RHF-SCF (OPEN SHELL)       Authors: W. Meyer, H.-J. Werner


 NUMBER OF ELECTRONS:      10+    8-    SPACE SYMMETRY=6    SPIN SYMMETRY: Triplet 
 CONVERGENCE THRESHOLDS:    1.00E-05 (Density)    1.00E-07 (Energy)
 MAX. NUMBER OF ITERATIONS:       60
 INTERPOLATION TYPE:            DIIS
 INTERPOLATION STEPS:              2 (START)      1 (STEP)
 LEVEL SHIFTS:                 -0.60 (CLOSED) -0.30 (OPEN) 


 Singly occupied orbitals:      1.4       1.7
 
 Extra symmetries of mos in symmetry 1:   1   1   3   2

   Atom=NI basis=ECP10MDF_GUESS    lmin=0  lmax=2

 Orbital guess generated from atomic densities. Full valence occupancy:    4   1   1   1   1   1   1   0


 Molecular orbital dump at record        2100.2

 ITERATION    DDIFF          GRAD             ENERGY        2-EL.EN.            DIPOLE MOMENTS         DIIS   ORB.
    1      0.000D+00      0.000D+00      -166.97977412    228.741312    0.00000    0.00000    0.00000    0    start
    2      0.000D+00      0.213D+00      -167.99750316    278.175436    0.00000    0.00000    0.00000    1    diag,B
    3      0.715D-01      0.130D+00      -168.44101957    263.738708    0.00000    0.00000    0.00000    2    diag,B
    4      0.424D-01      0.144D-01      -168.45671517    263.691893    0.00000    0.00000    0.00000    3    diag,B
    5      0.225D-01      0.329D-02      -168.45962762    264.385252    0.00000    0.00000    0.00000    4    diag,B
    6      0.132D-01      0.121D-02      -168.46024489    264.560204    0.00000    0.00000    0.00000    5    diag,B
    7      0.605D-02      0.610D-03      -168.46041217    264.571465    0.00000    0.00000    0.00000    6    fixocc
    8      0.461D-02      0.199D-03      -168.46042607    264.631542    0.00000    0.00000    0.00000    7    diag,B
    9      0.153D-02      0.101D-03      -168.46042653    264.616826    0.00000    0.00000    0.00000    8    diag,B
   10      0.514D-04      0.755D-05      -168.46042654    264.616172    0.00000    0.00000    0.00000    9    orth
   11      0.181D-04      0.153D-05      -168.46042654    264.616367    0.00000    0.00000    0.00000    9    diag,B
   12      0.703D-05      0.697D-06      -168.46042654    264.616323    0.00000    0.00000    0.00000    0    orth

 Final alpha occupancy:   4   1   1   1   1   1   1   0
 Final beta  occupancy:   4   1   1   0   1   1   0   0

 !RHF STATE 1.6 Energy               -168.460426538385
 Nuclear energy                         0.00000000
 One-electron energy                 -300.76858828
 Two-electron energy                  132.30816174
 Virial quotient                       -1.57262524
 !RHF STATE 1.6 Dipole moment           0.00000000     0.00000000     0.00000000
 Dipole moment /Debye                   0.00000000     0.00000000     0.00000000
 

 !RHF expec          <1.6|EKIN|1.6>   107.120515311083
 
 !RHF expec           <1.6|POT|1.6>   -23.589272350248

 ELECTRON ORBITALS
 =================


   Orb  Occ    Energy  Couls-En    Coefficients

                                   1 1s      1 1s      1 1s      1 1s      1 1s      1 3d0     1 3d2+    1 3d0     1 3d2+    1 3d0  
                                   1 3d2+    1 3d0     1 3d2+ 

   1.1   2    -5.0580  -26.4379  1.000009  0.000121 -0.000080 -0.000274  0.000131 -0.003063 -0.005306  0.001483  0.002569 -0.000368
                                -0.000638  0.000066  0.000115

   2.1   2    -0.2820   -7.0955  0.000186  1.000623  0.002008 -0.000870  0.000026  0.000090  0.000157 -0.003490 -0.006045 -0.003938
                                -0.006821  0.001017  0.001761

   3.1   2    -0.7069  -16.6576  0.006248  0.000154  0.000992  0.000897 -0.000102  0.502095  0.869654 -0.011383 -0.019716 -0.013568
                                -0.023500  0.004296  0.007441

   4.1   2    -0.6458  -16.4937  0.000000  0.000000  0.000000 -0.000000  0.000000  0.868977 -0.501704 -0.010200  0.005889 -0.016925
                                 0.009772  0.004640 -0.002679

                                   1 2px     1 2px     1 2px     1 2px     1 2px     1 4f1+    1 4f3+    1 4f1+    1 4f3+ 

   1.2   2    -3.3181  -22.8054  1.000267  0.014369  0.012755 -0.003358 -0.000294  0.000476  0.001843  0.000321  0.001245

                                   1 2py     1 2py     1 2py     1 2py     1 2py     1 4f1-    1 4f3-    1 4f1-    1 4f3- 

   1.3   2    -3.3295  -22.8275  1.000125  0.011055  0.011389 -0.001526 -0.000705 -0.002069 -0.002671 -0.005332 -0.006884

                                   1 3d2-    1 3d2-    1 3d2-    1 3d2- 

   1.4   +    -0.7719  -16.8436  1.004324 -0.037239 -0.033252  0.011715

                                   1 2pz     1 2pz     1 2pz     1 2pz     1 2pz     1 4f0     1 4f2+    1 4f0     1 4f2+ 

   1.5   2    -3.3181  -22.8054  1.000267  0.014369  0.012755 -0.003358 -0.000294  0.001166  0.001505  0.000787  0.001016

                                   1 3d1+    1 3d1+    1 3d1+    1 3d1+ 

   1.6   2    -0.6458  -16.4937  1.003409 -0.011778 -0.019544  0.005358

                                   1 3d1-    1 3d1-    1 3d1-    1 3d1- 

   1.7   +    -0.7719  -16.8436  1.004324 -0.037239 -0.033252  0.011715

 HOMO      4.1    -0.645802 =     -17.5732eV
 LUMO      2.3     0.025687 =       0.6990eV
 LUMO-HOMO         0.671489 =      18.2722eV


 **********************************************************************************************************************************
 DATASETS  * FILE   NREC   LENGTH (MB)   RECORD NAMES
              1      20       19.93       500      610      700      900      950      970     1000      129      960     1100   
                                          VAR    BASINP    GEOM    SYMINP    ZMAT    AOBASIS   BASIS     P2S    ABASIS      S 
                                         1400     1410     1420     1200     1210     1080     1600     1650     1300     1700   
                                         EKIN       V       ECP      H0       H01     AOSYM     SMH    MOLCAS    ERIS     OPER   

              2       4        2.77       700     1000      520     2100   
                                         GEOM     BASIS   MCVARS     RHF  

 PROGRAMS   *        TOTAL        HF       INT
 CPU TIMES  *         0.89      0.07      0.70
 REAL TIME  *         2.36 SEC
 DISK USED  *        25.51 MB      
 **********************************************************************************************************************************
 SETTING SCF(I)         =      -168.46042654  AU                              
 SETTING _CC_NORM_MAX   =         2.00000000                                  


 PROGRAM * CI (Multireference internally contracted CI)     Authors: H.-J. Werner, P.J. Knowles, 1987


 Convergence thresholds:  THRVAR = 1.00D-08  THRDEN = 1.00D-06

 Number of optimized states:  1  Roots:   1
 Number of reference states:  1  Roots:   1

 Reference symmetry:                   6   Triplet 
 Number of electrons:                 18
 Maximum number of shells:             3
 Maximum number of spin couplings:     9

 Reference space:        1 conf        1 CSFs
 N elec internal:       45 conf       45 CSFs
 N-1 el internal:       98 conf      226 CSFs
 N-2 el internal:       53 conf      325 CSFs

 Number of electrons in valence space:                     18
 Maximum number of open shell orbitals in reference space:  2
 Maximum number of open shell orbitals in internal spaces:  6


 Number of closed-shell orbitals:   8 (   4   1   1   0   1   1   0   0 )
 Number of active  orbitals:        2 (   0   0   0   1   0   0   1   0 )
 Number of external orbitals:      44 (   9   8   8   3   8   3   3   2 )

 Molecular orbitals read from record     2100.2  Type=RHF/CANONICAL (state 1.6)

 Integral transformation finished. Total CPU:   0.00 sec, npass=  1  Memory used:   0.09 MW

 Number of p-space configurations:   1

 Reference wavefunction optimized for reference space (refopt=1)

 State     Reference Energy 
   1        -168.46042654

 Number of blocks in overlap matrix:    97   Smallest eigenvalue:  0.10D+01
 Number of N-2 electron functions:      97
 Number of N-1 electron functions:     226

 Number of internal configurations:                    6
 Number of singly external configurations:          1131
 Number of doubly external configurations:         12352
 Total number of contracted configurations:        13489
 Total number of uncontracted configurations:      42063

 Diagonal Coupling coefficients finished.               Storage:   18328 words, CPU-Time:      0.00 seconds.
 Energy denominators for pairs finished in 1 passes.    Storage:   15269 words, CPU-time:      0.00 seconds.

  ITER. STATE  ROOT     SQ.NORM     CORR.ENERGY   TOTAL ENERGY   ENERGY CHANGE       DEN1      VAR(S)    VAR(P)      TIME
    1     1     1     1.00000000     0.00000000  -168.46042654    -0.00000000    -0.58716811  0.13D-01  0.11D+00     0.04
    2     1     1     1.07244921    -0.45590650  -168.91633304    -0.45590650    -0.01610050  0.29D-02  0.17D-02     0.11
    3     1     1     1.07619798    -0.46967451  -168.93010104    -0.01376800    -0.00075494  0.15D-03  0.10D-03     0.17
    4     1     1     1.07706828    -0.47040773  -168.93083427    -0.00073322    -0.00005401  0.17D-04  0.63D-05     0.23
    5     1     1     1.07783273    -0.47046629  -168.93089283    -0.00005856    -0.00000328  0.25D-06  0.62D-06     0.28
    6     1     1     1.07795778    -0.47046993  -168.93089647    -0.00000365    -0.00000015  0.27D-07  0.22D-07     0.34
    7     1     1     1.07796431    -0.47047010  -168.93089664    -0.00000017    -0.00000001  0.18D-08  0.12D-08     0.41


 =====================================
 Analysis of CPU times by interactions
 =====================================

       I      S      P

 I   2.4%
 S   2.4%  39.0%
 P   0.0%  17.1%  14.6%

 Initialization:   7.3%
 Other:           17.1%

 Total CPU:        0.4 seconds
 =====================================



 Reference coefficients greater than 0.0500000
 =============================================
 222222/22/           0.9614334

  Internal coefficients greater than 0.0500000
 =============================================
 222/2222/2           0.0563632



 RESULTS FOR STATE 1.6
 =====================

 Coefficient of reference function:   C(0) = 0.96143340 (fixed)   0.96143340 (relaxed)

 Energy contributions of configuration classes

 CLASS          SQ.NORM        ECORR1        ECORR2
 +++++++++++++++++++++++++++++++++++++++++++++++++++
 Internals    0.00359204   -0.00334287   -0.00465211
 Singles      0.01191526   -0.06563951   -0.06585379
 Pairs        0.06632910   -0.40148772   -0.39996421
 Total        1.08183640   -0.47047010   -0.47047010
 +++++++++++++++++++++++++++++++++++++++++++++++++++


 Reference energy                    -168.46042654
 Nuclear energy                         0.00000000
 Kinetic energy                       106.24779935
 One electron energy                 -299.71597250
 Two electron energy                  130.78507586
 Virial quotient                       -1.58997078
 Correlation energy                    -0.47047010
 !CI(SD) STATE 1.6 Energy            -168.930896641231

 Properties without orbital relaxation:

 !CI(SD) STATE 1.6 Dipole moment        0.00000000     0.00000000     0.00000000
 Dipole moment /Debye                   0.00000000     0.00000000     0.00000000

 Cluster corrected energies          -168.96939822 (Davidson, fixed reference)
 Cluster corrected energies          -168.96939822 (Davidson, relaxed reference)

 Cluster corrected energies          -168.96675867 (Pople, fixed reference)
 Cluster corrected energies          -168.96675867 (Pople, relaxed reference)

 

 !CI(SD) expec       <1.6|EKIN|1.6>   106.247799354147
 
 !CI(SD) expec        <1.6|POT|1.6>   -23.482549069296


 **********************************************************************************************************************************
 DATASETS  * FILE   NREC   LENGTH (MB)   RECORD NAMES
              1      21       20.23       500      610      700      900      950      970     1000      129      960     1100   
                                          VAR    BASINP    GEOM    SYMINP    ZMAT    AOBASIS   BASIS     P2S    ABASIS      S 
                                         1400     1410     1420     1200     1210     1080     1600     1650     1300     1700   
                                         EKIN       V       ECP      H0       H01     AOSYM     SMH    MOLCAS    ERIS     OPER   
                                         1380   
                                         JKOP   

              2       4        2.77       700     1000      520     2100   
                                         GEOM     BASIS   MCVARS     RHF  

 PROGRAMS   *        TOTAL        CI        HF       INT
 CPU TIMES  *         1.34      0.45      0.07      0.70
 REAL TIME  *         3.24 SEC
 DISK USED  *        25.51 MB      
 **********************************************************************************************************************************
 SETTING POSTHF(I)      =      -168.93089664  AU                              
                                                                                                                                                                                                                                                                

         SCF            POSTHF        EKIN          POT
    -168.4604265   -168.9308966   106.2477994   -23.48254907
                                                  

 CI/USERDEF energy=   -168.930896641231

        CI              HF-SCF  
   -168.93089664   -168.46042654
 **********************************************************************************************************************************
 Variable memory released
