
 Primary working directories    : /global/cscratch1/sd/aannabe
 Secondary working directories  : /global/cscratch1/sd/aannabe
 Wavefunction directory         : /global/homes/a/aannabe/wfu/
 Main file repository           : /global/cscratch1/sd/aannabe/

 SHA1      : 2873118e99aab1bc19f5b6fc1784693c06d15c95
 NAME      : 2015.1.8
 ARCHNAME  : linux/x86_64
 FC        : /opt/cray/pe/craype/2.5.5/bin/ftn
 BLASLIB   : -Wl,-_start-group /opt/intel/compilers_and_libraries_2016.3.210/linux/mkl/lib/intel64/libmkl_intel_ilp64.a /opt/intel/compilers_and_libraries_2016.3.210/linux/mkl/lib/intel64/libmkl_intel_thread.a /opt/intel/compilers_and_libraries_2016.3.210/linux/mkl/lib/intel64/libmkl_core.a -Wl,-_end-group
 id        : lbl

 Nodes     nprocs
 nid00494     1

 Using customized tuning parameters: mindgm=8; mindgv=16; mindgc=4; mindgr=1; noblas=0; minvec=7
 default implementation of scratch files=df  

 ***,Ni
 memory,512,m
 gthresh,twoint=1.e-12
 
 gprint,basis,orbitals
 gexpec,ekin,pot
 
 angstrom
 geometry={
 1                                                                               ! Number of atoms
 Ni 0.0 0.0 0.0
 }
 
 basis={
 Including file /global/homes/a/aannabe/docs/totals/pps/Ni.pp
 Including file /global/homes/a/aannabe/docs/totals/basis/aug-cc-pVnZ/Ni_qz.basis
 }
 
 {hf
 wf,18,6,2
 occ,4,1,1,1,1,1,1,0
 open,1.4,1.7
 sym,1,1,1,3,2
 }
 scf(i)=energy
 
 _CC_NORM_MAX=2.0
 {ci
 maxit,100
 core
 }
 posthf(i)=energy
 
 table,scf,posthf,ekin,pot
 save,4.csv,new
 
 

 Variables initialized (889), CPU time= 0.01 sec
 Commands  initialized (702), CPU time= 0.01 sec, 572 directives.
 Default parameters read. Elapsed time= 0.17 sec

 Checking input...
 Passed
1


                                         ***  PROGRAM SYSTEM MOLPRO  ***
                                       Copyright, TTI GmbH Stuttgart, 2015
                                    Version 2015.1 linked Sep  7 2016 23:09:38


 **********************************************************************************************************************************
 LABEL *   Ni                                                                            
  64 bit serial version                                                                  DATE: 17-Sep-18          TIME: 12:17:22  
 **********************************************************************************************************************************

 SHA1:             2873118e99aab1bc19f5b6fc1784693c06d15c95
 **********************************************************************************************************************************

 THRESHOLDS:

 ZERO    =  1.00D-12  ONEINT  =  1.00D-12  TWOINT  =  1.00D-12  PREFAC  =  1.00D-14  LOCALI  =  1.00D-09  EORDER  =  1.00D-04
 ENERGY  =  0.00D+00  ETEST   =  0.00D+00  EDENS   =  0.00D+00  THRDEDEF=  1.00D-06  GRADIENT=  1.00D-02  STEP    =  1.00D-03
 ORBITAL =  1.00D-05  CIVEC   =  1.00D-05  COEFF   =  1.00D-04  PRINTCI =  5.00D-02  PUNCHCI =  9.90D+01  OPTGRAD =  3.00D-04
 OPTENERG=  1.00D-06  OPTSTEP =  3.00D-04  THRGRAD =  1.00D-10  COMPRESS=  1.00D-11  VARMIN  =  1.00D-07  VARMAX  =  1.00D-03
 THRDOUB =  0.00D+00  THRDIV  =  1.00D-05  THRRED  =  1.00D-07  THRPSP  =  1.00D+00  THRDC   =  1.00D-10  THRCS   =  1.00D-10
 THRNRM  =  1.00D-08  THREQ   =  0.00D+00  THRDE   =  1.00D+00  THRREF  =  1.00D-05  SPARFAC =  1.00D+00  THRDLP  =  1.00D-07
 THRDIA  =  1.00D-10  THRDLS  =  1.00D-07  THRGPS  =  0.00D+00  THRKEX  =  0.00D+00  THRDIS  =  2.00D-01  THRVAR  =  1.00D-10
 THRLOC  =  1.00D-06  THRGAP  =  1.00D-06  THRLOCT = -1.00D+00  THRGAPT = -1.00D+00  THRORB  =  1.00D-06  THRMLTP =  0.00D+00
 THRCPQCI=  1.00D-10  KEXTA   =  0.00D+00  THRCOARS=  0.00D+00  SYMTOL  =  1.00D-06  GRADTOL =  1.00D-06  THROVL  =  1.00D-08
 THRORTH =  1.00D-08  GRID    =  1.00D-06  GRIDMAX =  1.00D-03  DTMAX   =  0.00D+00  THROCCDE=  1.00D-01  THROCCDE=  1.00D-01



 ZUNIT=ANG
 

Geometry recognized as XYZ


 Variable memory set to  512000000 words,  buffer space   230000 words

 SETTING BASIS          =    USERDEF


 Recomputing integrals since basis changed


 Using spherical harmonics



 PROGRAM * SEWARD (Integral evaluation for generally contracted gaussian basis sets)     Author: Roland Lindh, 1990

 Geometry written to block  1 of record 700

 Orientation using atomic masses  
 Molecule type: Atom
 Symmetry elements: X,Y,Z
 Rotational constants:       0.0000000      0.0000000      0.0000000 GHz  (calculated with average atomic masses)

 Point group  D2h 



 ATOMIC COORDINATES

 NR  ATOM    CHARGE       X              Y              Z

   1  NI     18.00    0.000000000    0.000000000    0.000000000


          NI  CORE POTENTIAL

          d POTENTIAL

 POWERS             1              3              2              2
 EXPONENTIALS   28.26300       26.93603       27.08601       12.21300    
 COEFFICIENTS   18.00000       508.7340      -220.1000      -2.134933    

          s - d POTENTIAL

 POWERS             2              2
 EXPONENTIALS   26.43202       11.74897    
 COEFFICIENTS   321.2400       60.34701    

          p - d POTENTIAL

 POWERS             2              2
 EXPONENTIALS   29.49300       11.55698    
 COEFFICIENTS   236.5400       44.39699    


 BASIS DATA

   Nr Sym  Nuc  Type         Exponents   Contraction coefficients

    1.1 Ag    1  1s          97.161835     0.000709   -0.000140    0.000121    0.000434    0.002461    0.000000
    2.1 Ag                   51.187866    -0.012399    0.002756    0.003322    0.004848   -0.023460    0.000000
    3.1 Ag                   26.996725     0.107220   -0.025482   -0.045785   -0.087818    0.198590    0.000000
    4.1 Ag                   15.523536    -0.124556    0.032182    0.053415    0.121852   -0.402525    0.000000
    5.1 Ag                    8.916168    -0.351023    0.086226    0.222270    0.454218   -0.405568    0.000000
    6.1 Ag                    4.795806    -0.025758    0.001104   -0.073065   -0.245765    0.387893    0.000000
                              2.619926     0.498948   -0.135790   -0.293998   -0.997345    2.684679    0.000000
                              1.330111     0.568986   -0.215724   -0.668938   -0.834586   -2.955956    0.000000
                              0.668901     0.191121   -0.158367    0.297504    2.285675   -0.667467    0.000000
                              0.230439     0.010278    0.143499    1.233748    0.251538    4.094074    0.000000
                              0.121518    -0.003627    0.443672    0.129317   -1.988796   -3.103355    0.000000
                              0.057951     0.001295    0.472558   -0.603407    0.347602   -0.768728    0.000000
                              0.027201    -0.000307    0.110173   -0.533062    0.824150    1.331217    1.000000
    7.1 Ag    1  1s           0.013000     1.000000
    8.1 Ag    1  3d0        177.900125     0.000049
                             57.372112     0.007519
                             29.881432     0.036455
                             13.971757     0.086901
                              6.841152     0.180568
                              3.379983     0.268187
                              1.651827     0.296756
                              0.799251     0.251558
                              0.388057     0.162319
                              0.191191     0.072119
                              0.093358     0.023689
    9.1 Ag    1  3d2+       177.900125     0.000049
                             57.372112     0.007519
                             29.881432     0.036455
                             13.971757     0.086901
                              6.841152     0.180568
                              3.379983     0.268187
                              1.651827     0.296756
                              0.799251     0.251558
                              0.388057     0.162319
                              0.191191     0.072119
                              0.093358     0.023689
   10.1 Ag    1  3d0        177.900125    -0.000053
                             57.372112    -0.008850
                             29.881432    -0.041916
                             13.971757    -0.104691
                              6.841152    -0.219464
                              3.379983    -0.283712
                              1.651827    -0.122127
                              0.799251     0.190123
                              0.388057     0.376598
                              0.191191     0.295122
                              0.093358     0.178252
   11.1 Ag    1  3d2+       177.900125    -0.000053
                             57.372112    -0.008850
                             29.881432    -0.041916
                             13.971757    -0.104691
                              6.841152    -0.219464
                              3.379983    -0.283712
                              1.651827    -0.122127
                              0.799251     0.190123
                              0.388057     0.376598
                              0.191191     0.295122
                              0.093358     0.178252
   12.1 Ag    1  3d0        177.900125     0.000079
                             57.372112     0.011442
                             29.881432     0.053972
                             13.971757     0.141068
                              6.841152     0.302294
                              3.379983     0.236558
                              1.651827    -0.291311
                              0.799251    -0.581758
                              0.388057    -0.024063
                              0.191191     0.389387
                              0.093358     0.430833
   13.1 Ag    1  3d2+       177.900125     0.000079
                             57.372112     0.011442
                             29.881432     0.053972
                             13.971757     0.141068
                              6.841152     0.302294
                              3.379983     0.236558
                              1.651827    -0.291311
                              0.799251    -0.581758
                              0.388057    -0.024063
                              0.191191     0.389387
                              0.093358     0.430833
   14.1 Ag    1  3d0        177.900125    -0.000124
                             57.372112    -0.016602
                             29.881432    -0.077533
                             13.971757    -0.221826
                              6.841152    -0.481658
                              3.379983     0.182447
                              1.651827     0.945626
                              0.799251    -0.334241
                              0.388057    -0.761164
                              0.191191     0.136816
                              0.093358     0.600785
   15.1 Ag    1  3d2+       177.900125    -0.000124
                             57.372112    -0.016602
                             29.881432    -0.077533
                             13.971757    -0.221826
                              6.841152    -0.481658
                              3.379983     0.182447
                              1.651827     0.945626
                              0.799251    -0.334241
                              0.388057    -0.761164
                              0.191191     0.136816
                              0.093358     0.600785
   16.1 Ag    1  3d0        177.900125     0.000000
                             57.372112     0.000000
                             29.881432     0.000000
                             13.971757     0.000000
                              6.841152     0.000000
                              3.379983     0.000000
                              1.651827     0.000000
                              0.799251     0.000000
                              0.388057     0.000000
                              0.191191     0.000000
                              0.093358     1.000000
   17.1 Ag    1  3d2+       177.900125     0.000000
                             57.372112     0.000000
                             29.881432     0.000000
                             13.971757     0.000000
                              6.841152     0.000000
                              3.379983     0.000000
                              1.651827     0.000000
                              0.799251     0.000000
                              0.388057     0.000000
                              0.191191     0.000000
                              0.093358     1.000000
   18.1 Ag    1  3d0          0.045000     1.000000
   19.1 Ag    1  3d2+         0.045000     1.000000
   20.1 Ag    1  5g0          0.453559     1.000000
   21.1 Ag    1  5g4+         0.453559     1.000000
   22.1 Ag    1  5g2+         0.453559     1.000000
   23.1 Ag    1  5g0          1.549000     1.000000
   24.1 Ag    1  5g4+         1.549000     1.000000
   25.1 Ag    1  5g2+         1.549000     1.000000
   26.1 Ag    1  5g0          5.290163     1.000000
   27.1 Ag    1  5g4+         5.290163     1.000000
   28.1 Ag    1  5g2+         5.290163     1.000000
    1.2 B3u   1  2px        148.087630     0.000055    0.000027   -0.000237   -0.000260    0.000080    0.000000
    2.2 B3u                  77.452187    -0.000548   -0.000088    0.001456    0.001071   -0.000101    0.000000
    3.2 B3u                  40.915636     0.006979   -0.000773   -0.009745    0.002322   -0.006492    0.000000
    4.2 B3u                  22.575667    -0.023658    0.003345    0.037799   -0.032140    0.083129    0.000000
    5.2 B3u                  13.218268    -0.075682    0.019405    0.052521   -0.134136    0.195393    0.000000
    6.2 B3u                   7.232093     0.027253   -0.014288   -0.035006    0.229062   -0.765806    0.000000
                              4.054870     0.284778   -0.054527   -0.455577    0.752239   -1.206017    0.000000
                              2.122089     0.427632   -0.116454   -0.368306    0.205535    2.424444    0.000000
                              1.092769     0.309937   -0.060236    0.100392   -1.692910   -0.079387    0.000000
                              0.548240     0.088535   -0.023928    1.076652    0.436295   -2.325449    0.000000
                              0.238886     0.006427    0.347869   -0.045326    1.219514    2.129133    0.000000
                              0.084667     0.000708    0.522626   -0.703186   -0.945516   -0.733585    0.000000
                              0.038921     0.000186    0.276471    0.004580   -0.062232   -0.180444    1.000000
    7.2 B3u   1  2px          0.019000     1.000000
    8.2 B3u   1  4f1+         0.199600     1.000000
    9.2 B3u   1  4f3+         0.199600     1.000000
   10.2 B3u   1  4f1+         0.659980     1.000000
   11.2 B3u   1  4f3+         0.659980     1.000000
   12.2 B3u   1  4f1+         2.182234     1.000000
   13.2 B3u   1  4f3+         2.182234     1.000000
   14.2 B3u   1  4f1+         7.215589     1.000000
   15.2 B3u   1  4f3+         7.215589     1.000000
   16.2 B3u   1  6h1+         1.243132     1.000000
   17.2 B3u   1  6h3+         1.243132     1.000000
   18.2 B3u   1  6h5+         1.243132     1.000000
   19.2 B3u   1  6h1+         3.361535     1.000000
   20.2 B3u   1  6h3+         3.361535     1.000000
   21.2 B3u   1  6h5+         3.361535     1.000000
    1.3 B2u   1  2py        148.087630     0.000055    0.000027   -0.000237   -0.000260    0.000080    0.000000
    2.3 B2u                  77.452187    -0.000548   -0.000088    0.001456    0.001071   -0.000101    0.000000
    3.3 B2u                  40.915636     0.006979   -0.000773   -0.009745    0.002322   -0.006492    0.000000
    4.3 B2u                  22.575667    -0.023658    0.003345    0.037799   -0.032140    0.083129    0.000000
    5.3 B2u                  13.218268    -0.075682    0.019405    0.052521   -0.134136    0.195393    0.000000
    6.3 B2u                   7.232093     0.027253   -0.014288   -0.035006    0.229062   -0.765806    0.000000
                              4.054870     0.284778   -0.054527   -0.455577    0.752239   -1.206017    0.000000
                              2.122089     0.427632   -0.116454   -0.368306    0.205535    2.424444    0.000000
                              1.092769     0.309937   -0.060236    0.100392   -1.692910   -0.079387    0.000000
                              0.548240     0.088535   -0.023928    1.076652    0.436295   -2.325449    0.000000
                              0.238886     0.006427    0.347869   -0.045326    1.219514    2.129133    0.000000
                              0.084667     0.000708    0.522626   -0.703186   -0.945516   -0.733585    0.000000
                              0.038921     0.000186    0.276471    0.004580   -0.062232   -0.180444    1.000000
    7.3 B2u   1  2py          0.019000     1.000000
    8.3 B2u   1  4f1-         0.199600     1.000000
    9.3 B2u   1  4f3-         0.199600     1.000000
   10.3 B2u   1  4f1-         0.659980     1.000000
   11.3 B2u   1  4f3-         0.659980     1.000000
   12.3 B2u   1  4f1-         2.182234     1.000000
   13.3 B2u   1  4f3-         2.182234     1.000000
   14.3 B2u   1  4f1-         7.215589     1.000000
   15.3 B2u   1  4f3-         7.215589     1.000000
   16.3 B2u   1  6h1-         1.243132     1.000000
   17.3 B2u   1  6h3-         1.243132     1.000000
   18.3 B2u   1  6h5-         1.243132     1.000000
   19.3 B2u   1  6h1-         3.361535     1.000000
   20.3 B2u   1  6h3-         3.361535     1.000000
   21.3 B2u   1  6h5-         3.361535     1.000000
    1.4 B1g   1  3d2-       177.900125     0.000049   -0.000053    0.000079   -0.000124    0.000000
    2.4 B1g                  57.372112     0.007519   -0.008850    0.011442   -0.016602    0.000000
    3.4 B1g                  29.881432     0.036455   -0.041916    0.053972   -0.077533    0.000000
    4.4 B1g                  13.971757     0.086901   -0.104691    0.141068   -0.221826    0.000000
    5.4 B1g                   6.841152     0.180568   -0.219464    0.302294   -0.481658    0.000000
                              3.379983     0.268187   -0.283712    0.236558    0.182447    0.000000
                              1.651827     0.296756   -0.122127   -0.291311    0.945626    0.000000
                              0.799251     0.251558    0.190123   -0.581758   -0.334241    0.000000
                              0.388057     0.162319    0.376598   -0.024063   -0.761164    0.000000
                              0.191191     0.072119    0.295122    0.389387    0.136816    0.000000
                              0.093358     0.023689    0.178252    0.430833    0.600785    1.000000
    6.4 B1g   1  3d2-         0.045000     1.000000
    7.4 B1g   1  5g2-         0.453559     1.000000
    8.4 B1g   1  5g4-         0.453559     1.000000
    9.4 B1g   1  5g2-         1.549000     1.000000
   10.4 B1g   1  5g4-         1.549000     1.000000
   11.4 B1g   1  5g2-         5.290163     1.000000
   12.4 B1g   1  5g4-         5.290163     1.000000
    1.5 B1u   1  2pz        148.087630     0.000055    0.000027   -0.000237   -0.000260    0.000080    0.000000
    2.5 B1u                  77.452187    -0.000548   -0.000088    0.001456    0.001071   -0.000101    0.000000
    3.5 B1u                  40.915636     0.006979   -0.000773   -0.009745    0.002322   -0.006492    0.000000
    4.5 B1u                  22.575667    -0.023658    0.003345    0.037799   -0.032140    0.083129    0.000000
    5.5 B1u                  13.218268    -0.075682    0.019405    0.052521   -0.134136    0.195393    0.000000
    6.5 B1u                   7.232093     0.027253   -0.014288   -0.035006    0.229062   -0.765806    0.000000
                              4.054870     0.284778   -0.054527   -0.455577    0.752239   -1.206017    0.000000
                              2.122089     0.427632   -0.116454   -0.368306    0.205535    2.424444    0.000000
                              1.092769     0.309937   -0.060236    0.100392   -1.692910   -0.079387    0.000000
                              0.548240     0.088535   -0.023928    1.076652    0.436295   -2.325449    0.000000
                              0.238886     0.006427    0.347869   -0.045326    1.219514    2.129133    0.000000
                              0.084667     0.000708    0.522626   -0.703186   -0.945516   -0.733585    0.000000
                              0.038921     0.000186    0.276471    0.004580   -0.062232   -0.180444    1.000000
    7.5 B1u   1  2pz          0.019000     1.000000
    8.5 B1u   1  4f0          0.199600     1.000000
    9.5 B1u   1  4f2+         0.199600     1.000000
   10.5 B1u   1  4f0          0.659980     1.000000
   11.5 B1u   1  4f2+         0.659980     1.000000
   12.5 B1u   1  4f0          2.182234     1.000000
   13.5 B1u   1  4f2+         2.182234     1.000000
   14.5 B1u   1  4f0          7.215589     1.000000
   15.5 B1u   1  4f2+         7.215589     1.000000
   16.5 B1u   1  6h2+         1.243132     1.000000
   17.5 B1u   1  6h4+         1.243132     1.000000
   18.5 B1u   1  6h0          1.243132     1.000000
   19.5 B1u   1  6h2+         3.361535     1.000000
   20.5 B1u   1  6h4+         3.361535     1.000000
   21.5 B1u   1  6h0          3.361535     1.000000
    1.6 B2g   1  3d1+       177.900125     0.000049   -0.000053    0.000079   -0.000124    0.000000
    2.6 B2g                  57.372112     0.007519   -0.008850    0.011442   -0.016602    0.000000
    3.6 B2g                  29.881432     0.036455   -0.041916    0.053972   -0.077533    0.000000
    4.6 B2g                  13.971757     0.086901   -0.104691    0.141068   -0.221826    0.000000
    5.6 B2g                   6.841152     0.180568   -0.219464    0.302294   -0.481658    0.000000
                              3.379983     0.268187   -0.283712    0.236558    0.182447    0.000000
                              1.651827     0.296756   -0.122127   -0.291311    0.945626    0.000000
                              0.799251     0.251558    0.190123   -0.581758   -0.334241    0.000000
                              0.388057     0.162319    0.376598   -0.024063   -0.761164    0.000000
                              0.191191     0.072119    0.295122    0.389387    0.136816    0.000000
                              0.093358     0.023689    0.178252    0.430833    0.600785    1.000000
    6.6 B2g   1  3d1+         0.045000     1.000000
    7.6 B2g   1  5g1+         0.453559     1.000000
    8.6 B2g   1  5g3+         0.453559     1.000000
    9.6 B2g   1  5g1+         1.549000     1.000000
   10.6 B2g   1  5g3+         1.549000     1.000000
   11.6 B2g   1  5g1+         5.290163     1.000000
   12.6 B2g   1  5g3+         5.290163     1.000000
    1.7 B3g   1  3d1-       177.900125     0.000049   -0.000053    0.000079   -0.000124    0.000000
    2.7 B3g                  57.372112     0.007519   -0.008850    0.011442   -0.016602    0.000000
    3.7 B3g                  29.881432     0.036455   -0.041916    0.053972   -0.077533    0.000000
    4.7 B3g                  13.971757     0.086901   -0.104691    0.141068   -0.221826    0.000000
    5.7 B3g                   6.841152     0.180568   -0.219464    0.302294   -0.481658    0.000000
                              3.379983     0.268187   -0.283712    0.236558    0.182447    0.000000
                              1.651827     0.296756   -0.122127   -0.291311    0.945626    0.000000
                              0.799251     0.251558    0.190123   -0.581758   -0.334241    0.000000
                              0.388057     0.162319    0.376598   -0.024063   -0.761164    0.000000
                              0.191191     0.072119    0.295122    0.389387    0.136816    0.000000
                              0.093358     0.023689    0.178252    0.430833    0.600785    1.000000
    6.7 B3g   1  3d1-         0.045000     1.000000
    7.7 B3g   1  5g1-         0.453559     1.000000
    8.7 B3g   1  5g3-         0.453559     1.000000
    9.7 B3g   1  5g1-         1.549000     1.000000
   10.7 B3g   1  5g3-         1.549000     1.000000
   11.7 B3g   1  5g1-         5.290163     1.000000
   12.7 B3g   1  5g3-         5.290163     1.000000
    1.8 Au    1  4f2-         0.199600     1.000000
    2.8 Au    1  4f2-         0.659980     1.000000
    3.8 Au    1  4f2-         2.182234     1.000000
    4.8 Au    1  4f2-         7.215589     1.000000
    5.8 Au    1  6h4-         1.243132     1.000000
    6.8 Au    1  6h2-         1.243132     1.000000
    7.8 Au    1  6h4-         3.361535     1.000000
    8.8 Au    1  6h2-         3.361535     1.000000

 NUCLEAR CHARGE:                   18
 NUMBER OF PRIMITIVE AOS:         255
 NUMBER OF SYMMETRY AOS:          193
 NUMBER OF CONTRACTIONS:          135   (  28Ag  +  21B3u +  21B2u +  12B1g +  21B1u +  12B2g +  12B3g +   8Au  )
 NUMBER OF CORE ORBITALS:           4   (   1Ag  +   1B3u +   1B2u +   0B1g +   1B1u +   0B2g +   0B3g +   0Au  )
 NUMBER OF VALENCE ORBITALS:        6   (   3Ag  +   0B3u +   0B2u +   1B1g +   0B1u +   1B2g +   1B3g +   0Au  )


 NUCLEAR REPULSION ENERGY    0.00000000

 EXTRA SYMMETRY OF AOS IN SYMMETRY 1:   1 1 1 1 1 1 1 2 3 2   3 2 3 2 3 2 3 2 3 4   5 6 4 5 6 4 5 6
 EXTRA SYMMETRY OF AOS IN SYMMETRY 2:   1 1 1 1 1 1 1 2 3 2   3 2 3 2 3 4 5 6 4 5   6
 EXTRA SYMMETRY OF AOS IN SYMMETRY 3:   1 1 1 1 1 1 1 2 3 2   3 2 3 2 3 4 5 6 4 5   6
 EXTRA SYMMETRY OF AOS IN SYMMETRY 4:   1 1 1 1 1 1 2 3 2 3   2 3
 EXTRA SYMMETRY OF AOS IN SYMMETRY 5:   1 1 1 1 1 1 1 2 3 2   3 2 3 2 3 4 5 6 4 5   6
 EXTRA SYMMETRY OF AOS IN SYMMETRY 6:   1 1 1 1 1 1 2 3 2 3   2 3
 EXTRA SYMMETRY OF AOS IN SYMMETRY 7:   1 1 1 1 1 1 2 3 2 3   2 3
 EXTRA SYMMETRY OF AOS IN SYMMETRY 8:   1 1 1 1 2 3 2 3

 Eigenvalues of metric

         1 0.134E-02 0.182E-01 0.182E-01 0.865E-01 0.310E+00 0.310E+00 0.485E+00 0.485E+00
         2 0.203E-01 0.304E+00 0.304E+00 0.352E+00 0.538E+00 0.538E+00 0.538E+00 0.652E+00
         3 0.203E-01 0.304E+00 0.304E+00 0.352E+00 0.538E+00 0.538E+00 0.538E+00 0.652E+00
         4 0.182E-01 0.310E+00 0.485E+00 0.485E+00 0.966E+00 0.966E+00 0.998E+00 0.101E+01
         5 0.203E-01 0.304E+00 0.304E+00 0.352E+00 0.538E+00 0.538E+00 0.538E+00 0.652E+00
         6 0.182E-01 0.310E+00 0.485E+00 0.485E+00 0.966E+00 0.966E+00 0.998E+00 0.101E+01
         7 0.182E-01 0.310E+00 0.485E+00 0.485E+00 0.966E+00 0.966E+00 0.998E+00 0.101E+01
         8 0.304E+00 0.538E+00 0.538E+00 0.652E+00 0.122E+01 0.146E+01 0.146E+01 0.182E+01


 Contracted 2-electron integrals neglected if value below      1.0D-12
 AO integral compression algorithm  1   Integral accuracy      1.0D-12

     35.127 MB (compressed) written to integral file ( 48.2%)


 NUMBER OF SORTED TWO-ELECTRON INTEGRALS:    5465755.     BUFFER LENGTH:  32768
 NUMBER OF SEGMENTS:   1  SEGMENT LENGTH:    5465755      RECORD LENGTH: 524288

 Memory used in sort:       6.02 MW

 SORT1 READ     9044109. AND WROTE     3825599. INTEGRALS IN     11 RECORDS. CPU TIME:     0.29 SEC, REAL TIME:     0.41 SEC
 SORT2 READ     3825599. AND WROTE     5465755. INTEGRALS IN    134 RECORDS. CPU TIME:     0.21 SEC, REAL TIME:     0.44 SEC

 FILE SIZES:   FILE 1:    54.7 MBYTE,  FILE 4:    46.2 MBYTE,   TOTAL:    100.8 MBYTE

 OPERATOR DM      FOR CENTER  0  COORDINATES:    0.000000    0.000000    0.000000
 OPERATOR EKIN    FOR CENTER  0  COORDINATES:    0.000000    0.000000    0.000000
 OPERATOR POT     FOR CENTER  0  COORDINATES:    0.000000    0.000000    0.000000


 **********************************************************************************************************************************
 DATASETS  * FILE   NREC   LENGTH (MB)   RECORD NAMES
              1      20       40.54       500      610      700      900      950      970     1000      129      960     1100   
                                          VAR    BASINP    GEOM    SYMINP    ZMAT    AOBASIS   BASIS     P2S    ABASIS      S 
                                         1400     1410     1420     1200     1210     1080     1600     1650     1300     1700   
                                         EKIN       V       ECP      H0       H01     AOSYM     SMH    MOLCAS    ERIS     OPER   

 PROGRAMS   *        TOTAL       INT
 CPU TIMES  *         3.21      3.07
 REAL TIME  *        10.33 SEC
 DISK USED  *       101.14 MB      
 **********************************************************************************************************************************


 PROGRAM * RHF-SCF (OPEN SHELL)       Authors: W. Meyer, H.-J. Werner


 NUMBER OF ELECTRONS:      10+    8-    SPACE SYMMETRY=6    SPIN SYMMETRY: Triplet 
 CONVERGENCE THRESHOLDS:    1.00E-05 (Density)    1.00E-07 (Energy)
 MAX. NUMBER OF ITERATIONS:       60
 INTERPOLATION TYPE:            DIIS
 INTERPOLATION STEPS:              2 (START)      1 (STEP)
 LEVEL SHIFTS:                 -0.60 (CLOSED) -0.30 (OPEN) 


 Singly occupied orbitals:      1.4       1.7
 
 Extra symmetries of mos in symmetry 1:   1   1   3   2

   Atom=NI basis=ECP10MDF_GUESS    lmin=0  lmax=2

 Orbital guess generated from atomic densities. Full valence occupancy:    4   1   1   1   1   1   1   0


 Molecular orbital dump at record        2100.2

 ITERATION    DDIFF          GRAD             ENERGY        2-EL.EN.            DIPOLE MOMENTS         DIIS   ORB.
    1      0.000D+00      0.000D+00      -166.76327339    226.007252    0.00000    0.00000    0.00000    0    start
    2      0.000D+00      0.146D+00      -167.83968841    280.220570    0.00000    0.00000    0.00000    1    diag,B
    3      0.339D-01      0.117D+00      -168.43396382    265.114177    0.00000    0.00000    0.00000    2    diag,B
    4      0.101D-01      0.166D-01      -168.45686925    263.787330    0.00000    0.00000    0.00000    3    diag,B
    5      0.289D-02      0.288D-02      -168.46119716    264.267282    0.00000    0.00000    0.00000    4    diag,B
    6      0.289D-02      0.104D-02      -168.46217130    264.609846    0.00000    0.00000    0.00000    5    diag,B
    7      0.254D-02      0.427D-03      -168.46243046    264.671968    0.00000    0.00000    0.00000    6    fixocc
    8      0.193D-02      0.166D-03      -168.46246947    264.734128    0.00000    0.00000    0.00000    7    diag,B
    9      0.101D-02      0.625D-04      -168.46247085    264.733334    0.00000    0.00000    0.00000    8    diag,B
   10      0.157D-03      0.114D-04      -168.46247093    264.731802    0.00000    0.00000    0.00000    9    orth
   11      0.367D-04      0.274D-05      -168.46247094    264.731466    0.00000    0.00000    0.00000    9    diag,B
   12      0.590D-05      0.116D-05      -168.46247094    264.731418    0.00000    0.00000    0.00000    0    orth

 Final alpha occupancy:   4   1   1   1   1   1   1   0
 Final beta  occupancy:   4   1   1   0   1   1   0   0

 !RHF STATE 1.6 Energy               -168.462470938827
 Nuclear energy                         0.00000000
 One-electron energy                 -300.82818005
 Two-electron energy                  132.36570911
 Virial quotient                       -1.57469393
 !RHF STATE 1.6 Dipole moment           0.00000000     0.00000000     0.00000000
 Dipole moment /Debye                   0.00000000     0.00000000     0.00000000
 

 !RHF expec          <1.6|EKIN|1.6>   106.981088581408
 
 !RHF expec           <1.6|POT|1.6>   -23.586554463039

 ELECTRON ORBITALS
 =================


   Orb  Occ    Energy  Couls-En    Coefficients

                                   1 1s      1 1s      1 1s      1 1s      1 1s      1 1s      1 1s      1 3d0     1 3d2+    1 3d0  
                                   1 3d2+    1 3d0     1 3d2+    1 3d0     1 3d2+    1 3d0     1 3d2+    1 3d0     1 3d2+    1 5g0  
                                   1 5g4+    1 5g2+    1 5g0     1 5g4+    1 5g2+    1 5g0     1 5g4+    1 5g2+ 

   1.1   2    -5.0536  -26.4332  1.000017  0.000194 -0.000061  0.000055 -0.000002 -0.000311  0.000121 -0.003152 -0.005459  0.000730
                                 0.001265 -0.000694 -0.001202 -0.000653 -0.001130  0.000930  0.001610 -0.000113 -0.000195  0.000102
                                 0.000201  0.000152  0.000329  0.000649  0.000491  0.000152  0.000300  0.000227

   2.1   2    -0.2813   -7.0839  0.000007  0.999951  0.000166 -0.000061 -0.000001  0.000014 -0.000060 -0.000869 -0.001506 -0.005347
                                -0.009260 -0.001633 -0.002828  0.000022  0.000037 -0.000279 -0.000483 -0.000419 -0.000727 -0.000127
                                -0.000251 -0.000190  0.000032  0.000064  0.000048  0.000030  0.000059  0.000044

   3.1   2    -0.7032  -16.6655  0.006039  0.001498  0.000747  0.000287 -0.000051 -0.000328  0.000167  0.499417  0.865016 -0.018994
                                -0.032899 -0.006738 -0.011670 -0.000734 -0.001271 -0.000383 -0.000663  0.000067  0.000116 -0.000517
                                -0.001019 -0.000771 -0.000960 -0.001893 -0.001431 -0.000474 -0.000934 -0.000706

   4.1   2    -0.6438  -16.4978 -0.000000  0.000000  0.000000 -0.000000 -0.000000 -0.000000  0.000000  0.865990 -0.499979 -0.018494
                                 0.010677 -0.007503  0.004332 -0.001440  0.000831 -0.002172  0.001254  0.000109 -0.000063 -0.000155
                                 0.000183 -0.000139 -0.000545  0.000645 -0.000488 -0.000286  0.000338 -0.000256

                                   1 2px     1 2px     1 2px     1 2px     1 2px     1 2px     1 2px     1 4f1+    1 4f3+    1 4f1+ 
                                   1 4f3+    1 4f1+    1 4f3+    1 4f1+    1 4f3+    1 6h1+    1 6h3+    1 6h5+    1 6h1+    1 6h3+ 
                                   1 6h5+ 

   1.2   2    -3.3150  -22.8024  1.000360  0.015363  0.012557 -0.000311 -0.001050 -0.005073  0.000153  0.000034  0.000132  0.000485
                                 0.001877  0.000287  0.001111  0.000152  0.000588  0.000008  0.000027  0.000060 -0.000034 -0.000109
                                -0.000243

                                   1 2py     1 2py     1 2py     1 2py     1 2py     1 2py     1 2py     1 4f1-    1 4f3-    1 4f1- 
                                   1 4f3-    1 4f1-    1 4f3-    1 4f1-    1 4f3-    1 6h1-    1 6h3-    1 6h5-    1 6h1-    1 6h3- 
                                   1 6h5- 

   1.3   2    -3.3238  -22.8211  1.000236  0.012274  0.010976 -0.000651 -0.000523 -0.003706 -0.000015 -0.000030 -0.000039 -0.002231
                                -0.002880 -0.004452 -0.005747 -0.001765 -0.002278  0.000058  0.000062  0.000083 -0.000156 -0.000168
                                -0.000225

                                   1 3d2-    1 3d2-    1 3d2-    1 3d2-    1 3d2-    1 3d2-    1 5g2-    1 5g4-    1 5g2-    1 5g4- 
                                   1 5g2-    1 5g4- 

   1.4   +    -0.7689  -16.8585  0.997263 -0.057817 -0.018024 -0.000256  0.001172  0.000201 -0.000371 -0.000981 -0.000864 -0.002285
                                -0.000447 -0.001182

                                   1 2pz     1 2pz     1 2pz     1 2pz     1 2pz     1 2pz     1 2pz     1 4f0     1 4f2+    1 4f0  
                                   1 4f2+    1 4f0     1 4f2+    1 4f0     1 4f2+    1 6h2+    1 6h4+    1 6h0     1 6h2+    1 6h4+ 
                                   1 6h0  

   1.5   2    -3.3150  -22.8024  1.000360  0.015363  0.012557 -0.000311 -0.001050 -0.005073  0.000153  0.000083  0.000108  0.001187
                                 0.001533  0.000702  0.000907  0.000372  0.000480  0.000044  0.000038  0.000032 -0.000178 -0.000154
                                -0.000130

                                   1 3d1+    1 3d1+    1 3d1+    1 3d1+    1 3d1+    1 3d1+    1 5g1+    1 5g3+    1 5g1+    1 5g3+ 
                                   1 5g1+    1 5g3+ 

   1.6   2    -0.6438  -16.4978  0.999959 -0.021355 -0.008664 -0.001662 -0.002508  0.000126 -0.000098 -0.000259 -0.000345 -0.000912
                                -0.000181 -0.000478

                                   1 3d1-    1 3d1-    1 3d1-    1 3d1-    1 3d1-    1 3d1-    1 5g1-    1 5g3-    1 5g1-    1 5g3- 
                                   1 5g1-    1 5g3- 

   1.7   +    -0.7689  -16.8585  0.997263 -0.057817 -0.018024 -0.000256  0.001172  0.000201 -0.000787 -0.000694 -0.001832 -0.001616
                                -0.000948 -0.000836

 HOMO      4.1    -0.643758 =     -17.5176eV
 LUMO      2.3     0.025236 =       0.6867eV
 LUMO-HOMO         0.668994 =      18.2043eV


 **********************************************************************************************************************************
 DATASETS  * FILE   NREC   LENGTH (MB)   RECORD NAMES
              1      20       40.54       500      610      700      900      950      970     1000      129      960     1100   
                                          VAR    BASINP    GEOM    SYMINP    ZMAT    AOBASIS   BASIS     P2S    ABASIS      S 
                                         1400     1410     1420     1200     1210     1080     1600     1650     1300     1700   
                                         EKIN       V       ECP      H0       H01     AOSYM     SMH    MOLCAS    ERIS     OPER   

              2       4        2.85       700     1000      520     2100   
                                         GEOM     BASIS   MCVARS     RHF  

 PROGRAMS   *        TOTAL        HF       INT
 CPU TIMES  *         3.53      0.32      3.07
 REAL TIME  *        17.49 SEC
 DISK USED  *       101.14 MB      
 **********************************************************************************************************************************
 SETTING SCF(I)         =      -168.46247094  AU                              
 SETTING _CC_NORM_MAX   =         2.00000000                                  


 PROGRAM * CI (Multireference internally contracted CI)     Authors: H.-J. Werner, P.J. Knowles, 1987


 Convergence thresholds:  THRVAR = 1.00D-08  THRDEN = 1.00D-06

 Number of optimized states:  1  Roots:   1
 Number of reference states:  1  Roots:   1

 Reference symmetry:                   6   Triplet 
 Number of electrons:                 18
 Maximum number of shells:             3
 Maximum number of spin couplings:     9

 Reference space:        1 conf        1 CSFs
 N elec internal:       45 conf       45 CSFs
 N-1 el internal:       98 conf      226 CSFs
 N-2 el internal:       53 conf      325 CSFs

 Number of electrons in valence space:                     18
 Maximum number of open shell orbitals in reference space:  2
 Maximum number of open shell orbitals in internal spaces:  6


 Number of closed-shell orbitals:   8 (   4   1   1   0   1   1   0   0 )
 Number of active  orbitals:        2 (   0   0   0   1   0   0   1   0 )
 Number of external orbitals:     125 (  24  20  20  11  20  11  11   8 )

 Molecular orbitals read from record     2100.2  Type=RHF/CANONICAL (state 1.6)

 Integral transformation finished. Total CPU:   0.07 sec, npass=  1  Memory used:   0.19 MW

 Number of p-space configurations:   1

 Reference wavefunction optimized for reference space (refopt=1)

 State     Reference Energy 
   1        -168.46247094

 Number of blocks in overlap matrix:    97   Smallest eigenvalue:  0.10D+01
 Number of N-2 electron functions:      97
 Number of N-1 electron functions:     226

 Number of internal configurations:                    6
 Number of singly external configurations:          3307
 Number of doubly external configurations:         97005
 Total number of contracted configurations:       100318
 Total number of uncontracted configurations:     328319

 Diagonal Coupling coefficients finished.               Storage:   18328 words, CPU-Time:      0.00 seconds.
 Energy denominators for pairs finished in 1 passes.    Storage:   58766 words, CPU-time:      0.00 seconds.

  ITER. STATE  ROOT     SQ.NORM     CORR.ENERGY   TOTAL ENERGY   ENERGY CHANGE       DEN1      VAR(S)    VAR(P)      TIME
    1     1     1     1.00000000     0.00000000  -168.46247094     0.00000000    -0.88534047  0.15D-01  0.11D+00     0.09
    2     1     1     1.08288987    -0.71329983  -169.17577077    -0.71329983    -0.02278559  0.21D-02  0.27D-02     0.32
    3     1     1     1.07558933    -0.73364799  -169.19611893    -0.02034816    -0.00071821  0.79D-04  0.13D-03     0.54
    4     1     1     1.07485044    -0.73430172  -169.19677266    -0.00065373    -0.00004214  0.80D-05  0.61D-05     0.77
    5     1     1     1.07491494    -0.73434440  -169.19681533    -0.00004267    -0.00000199  0.20D-06  0.28D-06     1.00
    6     1     1     1.07498098    -0.73434641  -169.19681735    -0.00000201    -0.00000008  0.94D-08  0.12D-07     1.22
    7     1     1     1.07498689    -0.73434650  -169.19681744    -0.00000009    -0.00000000  0.44D-09  0.39D-09     1.44


 =====================================
 Analysis of CPU times by interactions
 =====================================

       I      S      P

 I   0.0%
 S   0.0%  16.7%
 P   0.0%   4.9%  23.6%

 Initialization:   6.2%
 Other:           48.6%

 Total CPU:        1.4 seconds
 =====================================



 Reference coefficients greater than 0.0500000
 =============================================
 222222/22/           0.9637682



 RESULTS FOR STATE 1.6
 =====================

 Coefficient of reference function:   C(0) = 0.96376820 (fixed)   0.96376820 (relaxed)

 Energy contributions of configuration classes

 CLASS          SQ.NORM        ECORR1        ECORR2
 +++++++++++++++++++++++++++++++++++++++++++++++++++
 Internals    0.00150159   -0.00256886   -0.00341032
 Singles      0.01083525   -0.08144323   -0.08303849
 Pairs        0.06426423   -0.65033441   -0.64789769
 Total        1.07660108   -0.73434650   -0.73434650
 +++++++++++++++++++++++++++++++++++++++++++++++++++


 Reference energy                    -168.46247094
 Nuclear energy                         0.00000000
 Kinetic energy                       107.31369434
 One electron energy                 -299.98390934
 Two electron energy                  130.78709190
 Virial quotient                       -1.57665635
 Correlation energy                    -0.73434650
 !CI(SD) STATE 1.6 Energy            -169.196817439839

 Properties without orbital relaxation:

 !CI(SD) STATE 1.6 Dipole moment        0.00000000     0.00000000     0.00000000
 Dipole moment /Debye                   0.00000000     0.00000000     0.00000000

 Cluster corrected energies          -169.25306918 (Davidson, fixed reference)
 Cluster corrected energies          -169.25306918 (Davidson, relaxed reference)

 Cluster corrected energies          -169.24900014 (Pople, fixed reference)
 Cluster corrected energies          -169.24900014 (Pople, relaxed reference)

 

 !CI(SD) expec       <1.6|EKIN|1.6>   107.313694337615
 
 !CI(SD) expec        <1.6|POT|1.6>   -23.561533550838


 **********************************************************************************************************************************
 DATASETS  * FILE   NREC   LENGTH (MB)   RECORD NAMES
              1      21       42.22       500      610      700      900      950      970     1000      129      960     1100   
                                          VAR    BASINP    GEOM    SYMINP    ZMAT    AOBASIS   BASIS     P2S    ABASIS      S 
                                         1400     1410     1420     1200     1210     1080     1600     1650     1300     1700   
                                         EKIN       V       ECP      H0       H01     AOSYM     SMH    MOLCAS    ERIS     OPER   
                                         1380   
                                         JKOP   

              2       4        2.85       700     1000      520     2100   
                                         GEOM     BASIS   MCVARS     RHF  

 PROGRAMS   *        TOTAL        CI        HF       INT
 CPU TIMES  *         5.01      1.48      0.32      3.07
 REAL TIME  *        19.75 SEC
 DISK USED  *       101.14 MB      
 **********************************************************************************************************************************
 SETTING POSTHF(I)      =      -169.19681744  AU                              
                                                                                                                                                                                                                                                                

         SCF            POSTHF        EKIN          POT
    -168.4624709   -169.1968174   107.3136943   -23.56153355
                                                  

 CI/USERDEF energy=   -169.196817439839

        CI              HF-SCF  
   -169.19681744   -168.46247094
 **********************************************************************************************************************************
 Variable memory released
