
 Primary working directories    : /global/cscratch1/sd/aannabe
 Secondary working directories  : /global/cscratch1/sd/aannabe
 Wavefunction directory         : /global/homes/a/aannabe/wfu/
 Main file repository           : /global/cscratch1/sd/aannabe/

 SHA1      : 2873118e99aab1bc19f5b6fc1784693c06d15c95
 NAME      : 2015.1.8
 ARCHNAME  : linux/x86_64
 FC        : /opt/cray/pe/craype/2.5.5/bin/ftn
 BLASLIB   : -Wl,-_start-group /opt/intel/compilers_and_libraries_2016.3.210/linux/mkl/lib/intel64/libmkl_intel_ilp64.a /opt/intel/compilers_and_libraries_2016.3.210/linux/mkl/lib/intel64/libmkl_intel_thread.a /opt/intel/compilers_and_libraries_2016.3.210/linux/mkl/lib/intel64/libmkl_core.a -Wl,-_end-group
 id        : lbl

 Nodes     nprocs
 nid00494     1

 Using customized tuning parameters: mindgm=8; mindgv=16; mindgc=4; mindgr=1; noblas=0; minvec=7
 default implementation of scratch files=df  

 ***,Ni
 memory,512,m
 gthresh,twoint=1.e-12
 
 gprint,basis,orbitals
 gexpec,ekin,pot
 
 angstrom
 geometry={
 1                                                                               ! Number of atoms
 Ni 0.0 0.0 0.0
 }
 
 basis={
 Including file /global/homes/a/aannabe/docs/totals/pps/Ni.pp
 Including file /global/homes/a/aannabe/docs/totals/basis/aug-cc-pVnZ/Ni_5z.basis
 }
 
 {hf
 wf,18,6,2
 occ,4,1,1,1,1,1,1,0
 open,1.4,1.7
 sym,1,1,1,3,2
 }
 scf(i)=energy
 
 _CC_NORM_MAX=2.0
 {ci
 maxit,100
 core
 }
 posthf(i)=energy
 
 table,scf,posthf,ekin,pot
 save,5.csv,new
 
 

 Variables initialized (889), CPU time= 0.01 sec
 Commands  initialized (702), CPU time= 0.01 sec, 572 directives.
 Default parameters read. Elapsed time= 0.16 sec

 Checking input...
 Passed
1


                                         ***  PROGRAM SYSTEM MOLPRO  ***
                                       Copyright, TTI GmbH Stuttgart, 2015
                                    Version 2015.1 linked Sep  7 2016 23:09:38


 **********************************************************************************************************************************
 LABEL *   Ni                                                                            
  64 bit serial version                                                                  DATE: 17-Sep-18          TIME: 12:17:53  
 **********************************************************************************************************************************

 SHA1:             2873118e99aab1bc19f5b6fc1784693c06d15c95
 **********************************************************************************************************************************

 THRESHOLDS:

 ZERO    =  1.00D-12  ONEINT  =  1.00D-12  TWOINT  =  1.00D-12  PREFAC  =  1.00D-14  LOCALI  =  1.00D-09  EORDER  =  1.00D-04
 ENERGY  =  0.00D+00  ETEST   =  0.00D+00  EDENS   =  0.00D+00  THRDEDEF=  1.00D-06  GRADIENT=  1.00D-02  STEP    =  1.00D-03
 ORBITAL =  1.00D-05  CIVEC   =  1.00D-05  COEFF   =  1.00D-04  PRINTCI =  5.00D-02  PUNCHCI =  9.90D+01  OPTGRAD =  3.00D-04
 OPTENERG=  1.00D-06  OPTSTEP =  3.00D-04  THRGRAD =  1.00D-10  COMPRESS=  1.00D-11  VARMIN  =  1.00D-07  VARMAX  =  1.00D-03
 THRDOUB =  0.00D+00  THRDIV  =  1.00D-05  THRRED  =  1.00D-07  THRPSP  =  1.00D+00  THRDC   =  1.00D-10  THRCS   =  1.00D-10
 THRNRM  =  1.00D-08  THREQ   =  0.00D+00  THRDE   =  1.00D+00  THRREF  =  1.00D-05  SPARFAC =  1.00D+00  THRDLP  =  1.00D-07
 THRDIA  =  1.00D-10  THRDLS  =  1.00D-07  THRGPS  =  0.00D+00  THRKEX  =  0.00D+00  THRDIS  =  2.00D-01  THRVAR  =  1.00D-10
 THRLOC  =  1.00D-06  THRGAP  =  1.00D-06  THRLOCT = -1.00D+00  THRGAPT = -1.00D+00  THRORB  =  1.00D-06  THRMLTP =  0.00D+00
 THRCPQCI=  1.00D-10  KEXTA   =  0.00D+00  THRCOARS=  0.00D+00  SYMTOL  =  1.00D-06  GRADTOL =  1.00D-06  THROVL  =  1.00D-08
 THRORTH =  1.00D-08  GRID    =  1.00D-06  GRIDMAX =  1.00D-03  DTMAX   =  0.00D+00  THROCCDE=  1.00D-01  THROCCDE=  1.00D-01



 ZUNIT=ANG
 

Geometry recognized as XYZ


 Variable memory set to  512000000 words,  buffer space   230000 words

 SETTING BASIS          =    USERDEF


 Recomputing integrals since basis changed


 Using spherical harmonics



 PROGRAM * SEWARD (Integral evaluation for generally contracted gaussian basis sets)     Author: Roland Lindh, 1990

 Geometry written to block  1 of record 700

 Orientation using atomic masses  
 Molecule type: Atom
 Symmetry elements: X,Y,Z
 Rotational constants:       0.0000000      0.0000000      0.0000000 GHz  (calculated with average atomic masses)

 Point group  D2h 



 ATOMIC COORDINATES

 NR  ATOM    CHARGE       X              Y              Z

   1  NI     18.00    0.000000000    0.000000000    0.000000000


          NI  CORE POTENTIAL

          d POTENTIAL

 POWERS             1              3              2              2
 EXPONENTIALS   28.26300       26.93603       27.08601       12.21300    
 COEFFICIENTS   18.00000       508.7340      -220.1000      -2.134933    

          s - d POTENTIAL

 POWERS             2              2
 EXPONENTIALS   26.43202       11.74897    
 COEFFICIENTS   321.2400       60.34701    

          p - d POTENTIAL

 POWERS             2              2
 EXPONENTIALS   29.49300       11.55698    
 COEFFICIENTS   236.5400       44.39699    


 BASIS DATA

   Nr Sym  Nuc  Type         Exponents   Contraction coefficients

    1.1 Ag    1  1s          97.161835     0.000709   -0.000140    0.000121    0.000434    0.002461    0.000002
                                           0.000000
    2.1 Ag                   51.187866    -0.012399    0.002756    0.003322    0.004848   -0.023460   -0.011799
                                           0.000000
    3.1 Ag                   26.996725     0.107220   -0.025482   -0.045785   -0.087818    0.198590    0.228034
                                           0.000000
    4.1 Ag                   15.523536    -0.124556    0.032182    0.053415    0.121852   -0.402525   -0.518505
                                           0.000000
    5.1 Ag                    8.916168    -0.351023    0.086226    0.222270    0.454218   -0.405568   -1.143264
                                           0.000000
    6.1 Ag                    4.795806    -0.025758    0.001104   -0.073065   -0.245765    0.387893    3.241774
                                           0.000000
    7.1 Ag                    2.619926     0.498948   -0.135790   -0.293998   -0.997345    2.684679    0.667935
                                           0.000000
                              1.330111     0.568986   -0.215724   -0.668938   -0.834586   -2.955956   -6.658332
                                           0.000000
                              0.668901     0.191121   -0.158367    0.297504    2.285675   -0.667467    6.627251
                                           0.000000
                              0.230439     0.010278    0.143499    1.233748    0.251538    4.094074   -3.199018
                                           0.000000
                              0.121518    -0.003627    0.443672    0.129317   -1.988796   -3.103355   -0.632888
                                           0.000000
                              0.057951     0.001295    0.472558   -0.603407    0.347602   -0.768728    3.287436
                                           0.000000
                              0.027201    -0.000307    0.110173   -0.533062    0.824150    1.331217   -1.861778
                                           1.000000
    8.1 Ag    1  1s           0.013000     1.000000
    9.1 Ag    1  3d0        177.900125     0.000049
                             57.372112     0.007519
                             29.881432     0.036455
                             13.971757     0.086901
                              6.841152     0.180568
                              3.379983     0.268187
                              1.651827     0.296756
                              0.799251     0.251558
                              0.388057     0.162319
                              0.191191     0.072119
                              0.093358     0.023689
   10.1 Ag    1  3d2+       177.900125     0.000049
                             57.372112     0.007519
                             29.881432     0.036455
                             13.971757     0.086901
                              6.841152     0.180568
                              3.379983     0.268187
                              1.651827     0.296756
                              0.799251     0.251558
                              0.388057     0.162319
                              0.191191     0.072119
                              0.093358     0.023689
   11.1 Ag    1  3d0        177.900125    -0.000053
                             57.372112    -0.008850
                             29.881432    -0.041916
                             13.971757    -0.104691
                              6.841152    -0.219464
                              3.379983    -0.283712
                              1.651827    -0.122127
                              0.799251     0.190123
                              0.388057     0.376598
                              0.191191     0.295122
                              0.093358     0.178252
   12.1 Ag    1  3d2+       177.900125    -0.000053
                             57.372112    -0.008850
                             29.881432    -0.041916
                             13.971757    -0.104691
                              6.841152    -0.219464
                              3.379983    -0.283712
                              1.651827    -0.122127
                              0.799251     0.190123
                              0.388057     0.376598
                              0.191191     0.295122
                              0.093358     0.178252
   13.1 Ag    1  3d0        177.900125     0.000079
                             57.372112     0.011442
                             29.881432     0.053972
                             13.971757     0.141068
                              6.841152     0.302294
                              3.379983     0.236558
                              1.651827    -0.291311
                              0.799251    -0.581758
                              0.388057    -0.024063
                              0.191191     0.389387
                              0.093358     0.430833
   14.1 Ag    1  3d2+       177.900125     0.000079
                             57.372112     0.011442
                             29.881432     0.053972
                             13.971757     0.141068
                              6.841152     0.302294
                              3.379983     0.236558
                              1.651827    -0.291311
                              0.799251    -0.581758
                              0.388057    -0.024063
                              0.191191     0.389387
                              0.093358     0.430833
   15.1 Ag    1  3d0        177.900125    -0.000124
                             57.372112    -0.016602
                             29.881432    -0.077533
                             13.971757    -0.221826
                              6.841152    -0.481658
                              3.379983     0.182447
                              1.651827     0.945626
                              0.799251    -0.334241
                              0.388057    -0.761164
                              0.191191     0.136816
                              0.093358     0.600785
   16.1 Ag    1  3d2+       177.900125    -0.000124
                             57.372112    -0.016602
                             29.881432    -0.077533
                             13.971757    -0.221826
                              6.841152    -0.481658
                              3.379983     0.182447
                              1.651827     0.945626
                              0.799251    -0.334241
                              0.388057    -0.761164
                              0.191191     0.136816
                              0.093358     0.600785
   17.1 Ag    1  3d0        177.900125     0.000143
                             57.372112    -0.024129
                             29.881432    -0.087065
                             13.971757    -0.359465
                              6.841152    -0.490303
                              3.379983     1.318207
                              1.651827    -0.172417
                              0.799251    -1.342487
                              0.388057     1.013614
                              0.191191     0.533432
                              0.093358    -0.866049
   18.1 Ag    1  3d2+       177.900125     0.000143
                             57.372112    -0.024129
                             29.881432    -0.087065
                             13.971757    -0.359465
                              6.841152    -0.490303
                              3.379983     1.318207
                              1.651827    -0.172417
                              0.799251    -1.342487
                              0.388057     1.013614
                              0.191191     0.533432
                              0.093358    -0.866049
   19.1 Ag    1  3d0        177.900125     0.000000
                             57.372112     0.000000
                             29.881432     0.000000
                             13.971757     0.000000
                              6.841152     0.000000
                              3.379983     0.000000
                              1.651827     0.000000
                              0.799251     0.000000
                              0.388057     0.000000
                              0.191191     0.000000
                              0.093358     1.000000
   20.1 Ag    1  3d2+       177.900125     0.000000
                             57.372112     0.000000
                             29.881432     0.000000
                             13.971757     0.000000
                              6.841152     0.000000
                              3.379983     0.000000
                              1.651827     0.000000
                              0.799251     0.000000
                              0.388057     0.000000
                              0.191191     0.000000
                              0.093358     1.000000
   21.1 Ag    1  3d0          0.045000     1.000000
   22.1 Ag    1  3d2+         0.045000     1.000000
   23.1 Ag    1  5g0          0.321652     1.000000
   24.1 Ag    1  5g4+         0.321652     1.000000
   25.1 Ag    1  5g2+         0.321652     1.000000
   26.1 Ag    1  5g0          0.944121     1.000000
   27.1 Ag    1  5g4+         0.944121     1.000000
   28.1 Ag    1  5g2+         0.944121     1.000000
   29.1 Ag    1  5g0          2.771204     1.000000
   30.1 Ag    1  5g4+         2.771204     1.000000
   31.1 Ag    1  5g2+         2.771204     1.000000
   32.1 Ag    1  5g0          8.134096     1.000000
   33.1 Ag    1  5g4+         8.134096     1.000000
   34.1 Ag    1  5g2+         8.134096     1.000000
   35.1 Ag    1  7i6+         1.786540     1.000000
   36.1 Ag    1  7i4+         1.786540     1.000000
   37.1 Ag    1  7i2+         1.786540     1.000000
   38.1 Ag    1  7i0          1.786540     1.000000
   39.1 Ag    1  7i6+         4.485842     1.000000
   40.1 Ag    1  7i4+         4.485842     1.000000
   41.1 Ag    1  7i2+         4.485842     1.000000
   42.1 Ag    1  7i0          4.485842     1.000000
    1.2 B3u   1  2px        148.087630     0.000055    0.000027   -0.000237   -0.000260    0.000080   -0.001985
                                           0.000000
    2.2 B3u                  77.452187    -0.000548   -0.000088    0.001456    0.001071   -0.000101    0.010159
                                           0.000000
    3.2 B3u                  40.915636     0.006979   -0.000773   -0.009745    0.002322   -0.006492   -0.029367
                                           0.000000
    4.2 B3u                  22.575667    -0.023658    0.003345    0.037799   -0.032140    0.083129   -0.066497
                                           0.000000
    5.2 B3u                  13.218268    -0.075682    0.019405    0.052521   -0.134136    0.195393   -0.464883
                                           0.000000
    6.2 B3u                   7.232093     0.027253   -0.014288   -0.035006    0.229062   -0.765806    2.881074
                                           0.000000
    7.2 B3u                   4.054870     0.284778   -0.054527   -0.455577    0.752239   -1.206017   -2.201144
                                           0.000000
                              2.122089     0.427632   -0.116454   -0.368306    0.205535    2.424444   -2.240154
                                           0.000000
                              1.092769     0.309937   -0.060236    0.100392   -1.692910   -0.079387    5.380160
                                           0.000000
                              0.548240     0.088535   -0.023928    1.076652    0.436295   -2.325449   -4.638381
                                           0.000000
                              0.238886     0.006427    0.347869   -0.045326    1.219514    2.129133    2.076353
                                           0.000000
                              0.084667     0.000708    0.522626   -0.703186   -0.945516   -0.733585   -0.211195
                                           0.000000
                              0.038921     0.000186    0.276471    0.004580   -0.062232   -0.180444   -0.408015
                                           1.000000
    8.2 B3u   1  2px          0.019000     1.000000
    9.2 B3u   1  4f1+         0.155394     1.000000
   10.2 B3u   1  4f3+         0.155394     1.000000
   11.2 B3u   1  4f1+         0.443146     1.000000
   12.2 B3u   1  4f3+         0.443146     1.000000
   13.2 B3u   1  4f1+         1.263741     1.000000
   14.2 B3u   1  4f3+         1.263741     1.000000
   15.2 B3u   1  4f1+         3.603870     1.000000
   16.2 B3u   1  4f3+         3.603870     1.000000
   17.2 B3u   1  4f1+        10.277329     1.000000
   18.2 B3u   1  4f3+        10.277329     1.000000
   19.2 B3u   1  6h1+         0.573745     1.000000
   20.2 B3u   1  6h3+         0.573745     1.000000
   21.2 B3u   1  6h5+         0.573745     1.000000
   22.2 B3u   1  6h1+         1.828195     1.000000
   23.2 B3u   1  6h3+         1.828195     1.000000
   24.2 B3u   1  6h5+         1.828195     1.000000
   25.2 B3u   1  6h1+         5.825403     1.000000
   26.2 B3u   1  6h3+         5.825403     1.000000
   27.2 B3u   1  6h5+         5.825403     1.000000
    1.3 B2u   1  2py        148.087630     0.000055    0.000027   -0.000237   -0.000260    0.000080   -0.001985
                                           0.000000
    2.3 B2u                  77.452187    -0.000548   -0.000088    0.001456    0.001071   -0.000101    0.010159
                                           0.000000
    3.3 B2u                  40.915636     0.006979   -0.000773   -0.009745    0.002322   -0.006492   -0.029367
                                           0.000000
    4.3 B2u                  22.575667    -0.023658    0.003345    0.037799   -0.032140    0.083129   -0.066497
                                           0.000000
    5.3 B2u                  13.218268    -0.075682    0.019405    0.052521   -0.134136    0.195393   -0.464883
                                           0.000000
    6.3 B2u                   7.232093     0.027253   -0.014288   -0.035006    0.229062   -0.765806    2.881074
                                           0.000000
    7.3 B2u                   4.054870     0.284778   -0.054527   -0.455577    0.752239   -1.206017   -2.201144
                                           0.000000
                              2.122089     0.427632   -0.116454   -0.368306    0.205535    2.424444   -2.240154
                                           0.000000
                              1.092769     0.309937   -0.060236    0.100392   -1.692910   -0.079387    5.380160
                                           0.000000
                              0.548240     0.088535   -0.023928    1.076652    0.436295   -2.325449   -4.638381
                                           0.000000
                              0.238886     0.006427    0.347869   -0.045326    1.219514    2.129133    2.076353
                                           0.000000
                              0.084667     0.000708    0.522626   -0.703186   -0.945516   -0.733585   -0.211195
                                           0.000000
                              0.038921     0.000186    0.276471    0.004580   -0.062232   -0.180444   -0.408015
                                           1.000000
    8.3 B2u   1  2py          0.019000     1.000000
    9.3 B2u   1  4f1-         0.155394     1.000000
   10.3 B2u   1  4f3-         0.155394     1.000000
   11.3 B2u   1  4f1-         0.443146     1.000000
   12.3 B2u   1  4f3-         0.443146     1.000000
   13.3 B2u   1  4f1-         1.263741     1.000000
   14.3 B2u   1  4f3-         1.263741     1.000000
   15.3 B2u   1  4f1-         3.603870     1.000000
   16.3 B2u   1  4f3-         3.603870     1.000000
   17.3 B2u   1  4f1-        10.277329     1.000000
   18.3 B2u   1  4f3-        10.277329     1.000000
   19.3 B2u   1  6h1-         0.573745     1.000000
   20.3 B2u   1  6h3-         0.573745     1.000000
   21.3 B2u   1  6h5-         0.573745     1.000000
   22.3 B2u   1  6h1-         1.828195     1.000000
   23.3 B2u   1  6h3-         1.828195     1.000000
   24.3 B2u   1  6h5-         1.828195     1.000000
   25.3 B2u   1  6h1-         5.825403     1.000000
   26.3 B2u   1  6h3-         5.825403     1.000000
   27.3 B2u   1  6h5-         5.825403     1.000000
    1.4 B1g   1  3d2-       177.900125     0.000049   -0.000053    0.000079   -0.000124    0.000143    0.000000
    2.4 B1g                  57.372112     0.007519   -0.008850    0.011442   -0.016602   -0.024129    0.000000
    3.4 B1g                  29.881432     0.036455   -0.041916    0.053972   -0.077533   -0.087065    0.000000
    4.4 B1g                  13.971757     0.086901   -0.104691    0.141068   -0.221826   -0.359465    0.000000
    5.4 B1g                   6.841152     0.180568   -0.219464    0.302294   -0.481658   -0.490303    0.000000
    6.4 B1g                   3.379983     0.268187   -0.283712    0.236558    0.182447    1.318207    0.000000
                              1.651827     0.296756   -0.122127   -0.291311    0.945626   -0.172417    0.000000
                              0.799251     0.251558    0.190123   -0.581758   -0.334241   -1.342487    0.000000
                              0.388057     0.162319    0.376598   -0.024063   -0.761164    1.013614    0.000000
                              0.191191     0.072119    0.295122    0.389387    0.136816    0.533432    0.000000
                              0.093358     0.023689    0.178252    0.430833    0.600785   -0.866049    1.000000
    7.4 B1g   1  3d2-         0.045000     1.000000
    8.4 B1g   1  5g2-         0.321652     1.000000
    9.4 B1g   1  5g4-         0.321652     1.000000
   10.4 B1g   1  5g2-         0.944121     1.000000
   11.4 B1g   1  5g4-         0.944121     1.000000
   12.4 B1g   1  5g2-         2.771204     1.000000
   13.4 B1g   1  5g4-         2.771204     1.000000
   14.4 B1g   1  5g2-         8.134096     1.000000
   15.4 B1g   1  5g4-         8.134096     1.000000
   16.4 B1g   1  7i2-         1.786540     1.000000
   17.4 B1g   1  7i6-         1.786540     1.000000
   18.4 B1g   1  7i4-         1.786540     1.000000
   19.4 B1g   1  7i2-         4.485842     1.000000
   20.4 B1g   1  7i6-         4.485842     1.000000
   21.4 B1g   1  7i4-         4.485842     1.000000
    1.5 B1u   1  2pz        148.087630     0.000055    0.000027   -0.000237   -0.000260    0.000080   -0.001985
                                           0.000000
    2.5 B1u                  77.452187    -0.000548   -0.000088    0.001456    0.001071   -0.000101    0.010159
                                           0.000000
    3.5 B1u                  40.915636     0.006979   -0.000773   -0.009745    0.002322   -0.006492   -0.029367
                                           0.000000
    4.5 B1u                  22.575667    -0.023658    0.003345    0.037799   -0.032140    0.083129   -0.066497
                                           0.000000
    5.5 B1u                  13.218268    -0.075682    0.019405    0.052521   -0.134136    0.195393   -0.464883
                                           0.000000
    6.5 B1u                   7.232093     0.027253   -0.014288   -0.035006    0.229062   -0.765806    2.881074
                                           0.000000
    7.5 B1u                   4.054870     0.284778   -0.054527   -0.455577    0.752239   -1.206017   -2.201144
                                           0.000000
                              2.122089     0.427632   -0.116454   -0.368306    0.205535    2.424444   -2.240154
                                           0.000000
                              1.092769     0.309937   -0.060236    0.100392   -1.692910   -0.079387    5.380160
                                           0.000000
                              0.548240     0.088535   -0.023928    1.076652    0.436295   -2.325449   -4.638381
                                           0.000000
                              0.238886     0.006427    0.347869   -0.045326    1.219514    2.129133    2.076353
                                           0.000000
                              0.084667     0.000708    0.522626   -0.703186   -0.945516   -0.733585   -0.211195
                                           0.000000
                              0.038921     0.000186    0.276471    0.004580   -0.062232   -0.180444   -0.408015
                                           1.000000
    8.5 B1u   1  2pz          0.019000     1.000000
    9.5 B1u   1  4f0          0.155394     1.000000
   10.5 B1u   1  4f2+         0.155394     1.000000
   11.5 B1u   1  4f0          0.443146     1.000000
   12.5 B1u   1  4f2+         0.443146     1.000000
   13.5 B1u   1  4f0          1.263741     1.000000
   14.5 B1u   1  4f2+         1.263741     1.000000
   15.5 B1u   1  4f0          3.603870     1.000000
   16.5 B1u   1  4f2+         3.603870     1.000000
   17.5 B1u   1  4f0         10.277329     1.000000
   18.5 B1u   1  4f2+        10.277329     1.000000
   19.5 B1u   1  6h2+         0.573745     1.000000
   20.5 B1u   1  6h4+         0.573745     1.000000
   21.5 B1u   1  6h0          0.573745     1.000000
   22.5 B1u   1  6h2+         1.828195     1.000000
   23.5 B1u   1  6h4+         1.828195     1.000000
   24.5 B1u   1  6h0          1.828195     1.000000
   25.5 B1u   1  6h2+         5.825403     1.000000
   26.5 B1u   1  6h4+         5.825403     1.000000
   27.5 B1u   1  6h0          5.825403     1.000000
    1.6 B2g   1  3d1+       177.900125     0.000049   -0.000053    0.000079   -0.000124    0.000143    0.000000
    2.6 B2g                  57.372112     0.007519   -0.008850    0.011442   -0.016602   -0.024129    0.000000
    3.6 B2g                  29.881432     0.036455   -0.041916    0.053972   -0.077533   -0.087065    0.000000
    4.6 B2g                  13.971757     0.086901   -0.104691    0.141068   -0.221826   -0.359465    0.000000
    5.6 B2g                   6.841152     0.180568   -0.219464    0.302294   -0.481658   -0.490303    0.000000
    6.6 B2g                   3.379983     0.268187   -0.283712    0.236558    0.182447    1.318207    0.000000
                              1.651827     0.296756   -0.122127   -0.291311    0.945626   -0.172417    0.000000
                              0.799251     0.251558    0.190123   -0.581758   -0.334241   -1.342487    0.000000
                              0.388057     0.162319    0.376598   -0.024063   -0.761164    1.013614    0.000000
                              0.191191     0.072119    0.295122    0.389387    0.136816    0.533432    0.000000
                              0.093358     0.023689    0.178252    0.430833    0.600785   -0.866049    1.000000
    7.6 B2g   1  3d1+         0.045000     1.000000
    8.6 B2g   1  5g1+         0.321652     1.000000
    9.6 B2g   1  5g3+         0.321652     1.000000
   10.6 B2g   1  5g1+         0.944121     1.000000
   11.6 B2g   1  5g3+         0.944121     1.000000
   12.6 B2g   1  5g1+         2.771204     1.000000
   13.6 B2g   1  5g3+         2.771204     1.000000
   14.6 B2g   1  5g1+         8.134096     1.000000
   15.6 B2g   1  5g3+         8.134096     1.000000
   16.6 B2g   1  7i5+         1.786540     1.000000
   17.6 B2g   1  7i3+         1.786540     1.000000
   18.6 B2g   1  7i1+         1.786540     1.000000
   19.6 B2g   1  7i5+         4.485842     1.000000
   20.6 B2g   1  7i3+         4.485842     1.000000
   21.6 B2g   1  7i1+         4.485842     1.000000
    1.7 B3g   1  3d1-       177.900125     0.000049   -0.000053    0.000079   -0.000124    0.000143    0.000000
    2.7 B3g                  57.372112     0.007519   -0.008850    0.011442   -0.016602   -0.024129    0.000000
    3.7 B3g                  29.881432     0.036455   -0.041916    0.053972   -0.077533   -0.087065    0.000000
    4.7 B3g                  13.971757     0.086901   -0.104691    0.141068   -0.221826   -0.359465    0.000000
    5.7 B3g                   6.841152     0.180568   -0.219464    0.302294   -0.481658   -0.490303    0.000000
    6.7 B3g                   3.379983     0.268187   -0.283712    0.236558    0.182447    1.318207    0.000000
                              1.651827     0.296756   -0.122127   -0.291311    0.945626   -0.172417    0.000000
                              0.799251     0.251558    0.190123   -0.581758   -0.334241   -1.342487    0.000000
                              0.388057     0.162319    0.376598   -0.024063   -0.761164    1.013614    0.000000
                              0.191191     0.072119    0.295122    0.389387    0.136816    0.533432    0.000000
                              0.093358     0.023689    0.178252    0.430833    0.600785   -0.866049    1.000000
    7.7 B3g   1  3d1-         0.045000     1.000000
    8.7 B3g   1  5g1-         0.321652     1.000000
    9.7 B3g   1  5g3-         0.321652     1.000000
   10.7 B3g   1  5g1-         0.944121     1.000000
   11.7 B3g   1  5g3-         0.944121     1.000000
   12.7 B3g   1  5g1-         2.771204     1.000000
   13.7 B3g   1  5g3-         2.771204     1.000000
   14.7 B3g   1  5g1-         8.134096     1.000000
   15.7 B3g   1  5g3-         8.134096     1.000000
   16.7 B3g   1  7i5-         1.786540     1.000000
   17.7 B3g   1  7i3-         1.786540     1.000000
   18.7 B3g   1  7i1-         1.786540     1.000000
   19.7 B3g   1  7i5-         4.485842     1.000000
   20.7 B3g   1  7i3-         4.485842     1.000000
   21.7 B3g   1  7i1-         4.485842     1.000000
    1.8 Au    1  4f2-         0.155394     1.000000
    2.8 Au    1  4f2-         0.443146     1.000000
    3.8 Au    1  4f2-         1.263741     1.000000
    4.8 Au    1  4f2-         3.603870     1.000000
    5.8 Au    1  4f2-        10.277329     1.000000
    6.8 Au    1  6h4-         0.573745     1.000000
    7.8 Au    1  6h2-         0.573745     1.000000
    8.8 Au    1  6h4-         1.828195     1.000000
    9.8 Au    1  6h2-         1.828195     1.000000
   10.8 Au    1  6h4-         5.825403     1.000000
   11.8 Au    1  6h2-         5.825403     1.000000

 NUCLEAR CHARGE:                   18
 NUMBER OF PRIMITIVE AOS:         357
 NUMBER OF SYMMETRY AOS:          246
 NUMBER OF CONTRACTIONS:          197   (  42Ag  +  27B3u +  27B2u +  21B1g +  27B1u +  21B2g +  21B3g +  11Au  )
 NUMBER OF CORE ORBITALS:           4   (   1Ag  +   1B3u +   1B2u +   0B1g +   1B1u +   0B2g +   0B3g +   0Au  )
 NUMBER OF VALENCE ORBITALS:        6   (   3Ag  +   0B3u +   0B2u +   1B1g +   0B1u +   1B2g +   1B3g +   0Au  )


 NUCLEAR REPULSION ENERGY    0.00000000

 EXTRA SYMMETRY OF AOS IN SYMMETRY 1:   1 1 1 1 1 1 1 1 2 3   2 3 2 3 2 3 2 3 2 3   2 3 4 5 6 4 5 6 4 5   6 4 5 6 7 8 910 7 8
                                        910
 EXTRA SYMMETRY OF AOS IN SYMMETRY 2:   1 1 1 1 1 1 1 1 2 3   2 3 2 3 2 3 2 3 4 5   6 4 5 6 4 5 6
 EXTRA SYMMETRY OF AOS IN SYMMETRY 3:   1 1 1 1 1 1 1 1 2 3   2 3 2 3 2 3 2 3 4 5   6 4 5 6 4 5 6
 EXTRA SYMMETRY OF AOS IN SYMMETRY 4:   1 1 1 1 1 1 1 2 3 2   3 2 3 2 3 4 5 6 4 5   6
 EXTRA SYMMETRY OF AOS IN SYMMETRY 5:   1 1 1 1 1 1 1 1 2 3   2 3 2 3 2 3 2 3 4 5   6 4 5 6 4 5 6
 EXTRA SYMMETRY OF AOS IN SYMMETRY 6:   1 1 1 1 1 1 1 2 3 2   3 2 3 2 3 4 5 6 4 5   6
 EXTRA SYMMETRY OF AOS IN SYMMETRY 7:   1 1 1 1 1 1 1 2 3 2   3 2 3 2 3 4 5 6 4 5   6
 EXTRA SYMMETRY OF AOS IN SYMMETRY 8:   1 1 1 1 1 2 3 2 3 2   3

 Eigenvalues of metric

         1 0.563E-03 0.469E-02 0.469E-02 0.611E-01 0.233E+00 0.233E+00 0.301E+00 0.301E+00
         2 0.158E-01 0.171E+00 0.171E+00 0.310E+00 0.398E+00 0.398E+00 0.511E+00 0.511E+00
         3 0.158E-01 0.171E+00 0.171E+00 0.310E+00 0.398E+00 0.398E+00 0.511E+00 0.511E+00
         4 0.469E-02 0.233E+00 0.301E+00 0.301E+00 0.536E+00 0.536E+00 0.536E+00 0.655E+00
         5 0.158E-01 0.171E+00 0.171E+00 0.310E+00 0.398E+00 0.398E+00 0.511E+00 0.511E+00
         6 0.469E-02 0.233E+00 0.301E+00 0.301E+00 0.536E+00 0.536E+00 0.536E+00 0.655E+00
         7 0.469E-02 0.233E+00 0.301E+00 0.301E+00 0.536E+00 0.536E+00 0.536E+00 0.655E+00
         8 0.171E+00 0.398E+00 0.511E+00 0.511E+00 0.840E+00 0.974E+00 0.974E+00 0.148E+01


 Contracted 2-electron integrals neglected if value below      1.0D-12
 AO integral compression algorithm  1   Integral accuracy      1.0D-12

     130.023 MB (compressed) written to integral file ( 43.2%)


 NUMBER OF SORTED TWO-ELECTRON INTEGRALS:   24352329.     BUFFER LENGTH:  32768
 NUMBER OF SEGMENTS:   2  SEGMENT LENGTH:   15998961      RECORD LENGTH: 524288

 Memory used in sort:      16.56 MW

 SORT1 READ    37634223. AND WROTE    15876700. INTEGRALS IN     46 RECORDS. CPU TIME:     1.30 SEC, REAL TIME:     1.76 SEC
 SORT2 READ    15876700. AND WROTE    24352329. INTEGRALS IN    496 RECORDS. CPU TIME:     0.69 SEC, REAL TIME:     1.28 SEC

 FILE SIZES:   FILE 1:   150.0 MBYTE,  FILE 4:   193.0 MBYTE,   TOTAL:    343.0 MBYTE

 OPERATOR DM      FOR CENTER  0  COORDINATES:    0.000000    0.000000    0.000000
 OPERATOR EKIN    FOR CENTER  0  COORDINATES:    0.000000    0.000000    0.000000
 OPERATOR POT     FOR CENTER  0  COORDINATES:    0.000000    0.000000    0.000000


 **********************************************************************************************************************************
 DATASETS  * FILE   NREC   LENGTH (MB)   RECORD NAMES
              1      20      103.49       500      610      700      900      950      970     1000      129      960     1100   
                                          VAR    BASINP    GEOM    SYMINP    ZMAT    AOBASIS   BASIS     P2S    ABASIS      S 
                                         1400     1410     1420     1200     1210     1080     1600     1650     1300     1700   
                                         EKIN       V       ECP      H0       H01     AOSYM     SMH    MOLCAS    ERIS     OPER   

 PROGRAMS   *        TOTAL       INT
 CPU TIMES  *         9.84      9.69
 REAL TIME  *        12.75 SEC
 DISK USED  *       343.34 MB      
 **********************************************************************************************************************************


 PROGRAM * RHF-SCF (OPEN SHELL)       Authors: W. Meyer, H.-J. Werner


 NUMBER OF ELECTRONS:      10+    8-    SPACE SYMMETRY=6    SPIN SYMMETRY: Triplet 
 CONVERGENCE THRESHOLDS:    1.00E-05 (Density)    1.00E-07 (Energy)
 MAX. NUMBER OF ITERATIONS:       60
 INTERPOLATION TYPE:            DIIS
 INTERPOLATION STEPS:              2 (START)      1 (STEP)
 LEVEL SHIFTS:                 -0.60 (CLOSED) -0.30 (OPEN) 


 Singly occupied orbitals:      1.4       1.7
 
 Extra symmetries of mos in symmetry 1:   1   1   3   2

   Atom=NI basis=ECP10MDF_GUESS    lmin=0  lmax=2

 Orbital guess generated from atomic densities. Full valence occupancy:    4   1   1   1   1   1   1   0


 Molecular orbital dump at record        2100.2

 ITERATION    DDIFF          GRAD             ENERGY        2-EL.EN.            DIPOLE MOMENTS         DIIS   ORB.
    1      0.000D+00      0.000D+00      -166.75335905    225.857240    0.00000    0.00000    0.00000    0    start
    2      0.000D+00      0.118D+00      -167.83549920    280.264861    0.00000    0.00000    0.00000    1    diag,B
    3      0.238D-01      0.953D-01      -168.43331967    265.152657    0.00000    0.00000    0.00000    2    diag,B
    4      0.671D-02      0.136D-01      -168.45673095    263.770879    0.00000    0.00000    0.00000    3    diag,B
    5      0.208D-02      0.238D-02      -168.46115835    264.234426    0.00000    0.00000    0.00000    4    diag,B
    6      0.151D-02      0.888D-03      -168.46221446    264.567498    0.00000    0.00000    0.00000    5    diag,B
    7      0.137D-02      0.374D-03      -168.46250824    264.669946    0.00000    0.00000    0.00000    6    fixocc
    8      0.107D-02      0.163D-03      -168.46256783    264.726739    0.00000    0.00000    0.00000    7    diag,B
    9      0.804D-03      0.410D-04      -168.46256947    264.732684    0.00000    0.00000    0.00000    8    diag,B
   10      0.144D-03      0.103D-04      -168.46256960    264.732607    0.00000    0.00000    0.00000    9    orth
   11      0.447D-04      0.381D-05      -168.46256962    264.731594    0.00000    0.00000    0.00000    9    diag,B
   12      0.130D-04      0.163D-05      -168.46256962    264.731272    0.00000    0.00000    0.00000    9    diag,B
   13      0.940D-05      0.312D-06      -168.46256962    264.731198    0.00000    0.00000    0.00000    0    orth

 Final alpha occupancy:   4   1   1   1   1   1   1   0
 Final beta  occupancy:   4   1   1   0   1   1   0   0

 !RHF STATE 1.6 Energy               -168.462569619804
 Nuclear energy                         0.00000000
 One-electron energy                 -300.82816837
 Two-electron energy                  132.36559875
 Virial quotient                       -1.57469058
 !RHF STATE 1.6 Dipole moment           0.00000000     0.00000000     0.00000000
 Dipole moment /Debye                   0.00000000     0.00000000     0.00000000
 

 !RHF expec          <1.6|EKIN|1.6>   106.981378740643
 
 !RHF expec           <1.6|POT|1.6>   -23.586577139917

 ELECTRON ORBITALS
 =================


   Orb  Occ    Energy  Couls-En    Coefficients

                                   1 1s      1 1s      1 1s      1 1s      1 1s      1 1s      1 1s      1 1s      1 3d0     1 3d2+ 
                                   1 3d0     1 3d2+    1 3d0     1 3d2+    1 3d0     1 3d2+    1 3d0     1 3d2+    1 3d0     1 3d2+ 
                                   1 3d0     1 3d2+    1 5g0     1 5g4+    1 5g2+    1 5g0     1 5g4+    1 5g2+    1 5g0     1 5g4+ 
                                   1 5g2+    1 5g0     1 5g4+    1 5g2+    1 7i6+    1 7i4+    1 7i2+    1 7i0     1 7i6+    1 7i4+ 
                                   1 7i2+    1 7i0  

   1.1   2    -5.0536  -26.4332  1.000017  0.000191 -0.000059  0.000054 -0.000003  0.000000 -0.000307  0.000121 -0.002861 -0.004955
                                 0.001455  0.002520  0.000044  0.000077 -0.000202 -0.000350 -0.000248 -0.000429 -0.000354 -0.000613
                                 0.000018  0.000031  0.000011  0.000022  0.000017  0.000275  0.000543  0.000410  0.000213  0.000419
                                 0.000317  0.000092  0.000181  0.000137 -0.000002 -0.000002 -0.000002 -0.000001  0.000001  0.000000
                                 0.000000  0.000000

   2.1   2    -0.2813   -7.0838  0.000007  0.999962  0.000130 -0.000040  0.000013 -0.000007  0.000059 -0.000137 -0.000956 -0.001655
                                -0.005594 -0.009689 -0.001881 -0.003259 -0.000119 -0.000206  0.000064  0.000111  0.000179  0.000309
                                -0.000494 -0.000856 -0.000106 -0.000208 -0.000158 -0.000040 -0.000078 -0.000059  0.000061  0.000120
                                 0.000091  0.000002  0.000004  0.000003  0.000002  0.000001  0.000001  0.000001 -0.000002 -0.000001
                                -0.000001 -0.000001

   3.1   2    -0.7033  -16.6657  0.006061  0.001652  0.000611  0.000374  0.000036 -0.000057 -0.000442  0.000031  0.499400  0.864987
                                -0.019042 -0.032983 -0.006785 -0.011753 -0.000757 -0.001312  0.000009  0.000016 -0.000307 -0.000532
                                 0.000055  0.000094 -0.000255 -0.000504 -0.000381 -0.000797 -0.001572 -0.001188 -0.000705 -0.001391
                                -0.001051 -0.000226 -0.000445 -0.000337 -0.000229 -0.000169 -0.000154 -0.000106 -0.000252 -0.000186
                                -0.000170 -0.000117

   4.1   2    -0.6438  -16.4979 -0.000000 -0.000000  0.000000 -0.000000 -0.000000  0.000000 -0.000000  0.000000  0.866258 -0.500134
                                -0.017826  0.010292 -0.006814  0.003934 -0.001039  0.000600 -0.000186  0.000108 -0.003398  0.001962
                                 0.000280 -0.000162 -0.000047  0.000056 -0.000042 -0.000375  0.000444 -0.000335 -0.000440  0.000521
                                -0.000394 -0.000122  0.000145 -0.000110  0.000137 -0.000034 -0.000105 -0.000089  0.000145 -0.000036
                                -0.000111 -0.000094

                                   1 2px     1 2px     1 2px     1 2px     1 2px     1 2px     1 2px     1 2px     1 4f1+    1 4f3+ 
                                   1 4f1+    1 4f3+    1 4f1+    1 4f3+    1 4f1+    1 4f3+    1 4f1+    1 4f3+    1 6h1+    1 6h3+ 
                                   1 6h5+    1 6h1+    1 6h3+    1 6h5+    1 6h1+    1 6h3+    1 6h5+ 

   1.2   2    -3.3150  -22.8024  1.000342  0.015179  0.012628 -0.000231 -0.000973  0.000071 -0.004742  0.000063 -0.000000 -0.000002
                                 0.000287  0.001111  0.000429  0.001662  0.000141  0.000547  0.000117  0.000453  0.000009  0.000030
                                 0.000067 -0.000014 -0.000044 -0.000099 -0.000023 -0.000076 -0.000170

                                   1 2py     1 2py     1 2py     1 2py     1 2py     1 2py     1 2py     1 2py     1 4f1-    1 4f3- 
                                   1 4f1-    1 4f3-    1 4f1-    1 4f3-    1 4f1-    1 4f3-    1 4f1-    1 4f3-    1 6h1-    1 6h3- 
                                   1 6h5-    1 6h1-    1 6h3-    1 6h5-    1 6h1-    1 6h3-    1 6h5- 

   1.3   2    -3.3237  -22.8211  1.000263  0.012556  0.010871 -0.000771 -0.000642 -0.000109 -0.004210  0.000121 -0.000048 -0.000061
                                -0.000854 -0.001103 -0.003628 -0.004684 -0.003191 -0.004119 -0.000838 -0.001082  0.000054  0.000059
                                 0.000079 -0.000050 -0.000054 -0.000072 -0.000111 -0.000120 -0.000160

                                   1 3d2-    1 3d2-    1 3d2-    1 3d2-    1 3d2-    1 3d2-    1 3d2-    1 5g2-    1 5g4-    1 5g2- 
                                   1 5g4-    1 5g2-    1 5g4-    1 5g2-    1 5g4-    1 7i2-    1 7i6-    1 7i4-    1 7i2-    1 7i6- 
                                   1 7i4- 

   1.4   +    -0.7689  -16.8582  0.996748 -0.059105 -0.019352 -0.001029  0.000365  0.003518 -0.000115 -0.000163 -0.000430 -0.000665
                                -0.001760 -0.000665 -0.001759 -0.000207 -0.000549 -0.000114 -0.000507 -0.000250 -0.000133 -0.000592
                                -0.000292

                                   1 2pz     1 2pz     1 2pz     1 2pz     1 2pz     1 2pz     1 2pz     1 2pz     1 4f0     1 4f2+ 
                                   1 4f0     1 4f2+    1 4f0     1 4f2+    1 4f0     1 4f2+    1 4f0     1 4f2+    1 6h2+    1 6h4+ 
                                   1 6h0     1 6h2+    1 6h4+    1 6h0     1 6h2+    1 6h4+    1 6h0  

   1.5   2    -3.3150  -22.8024  1.000342  0.015179  0.012628 -0.000231 -0.000973  0.000071 -0.004742  0.000063 -0.000001 -0.000001
                                 0.000702  0.000907  0.001051  0.001357  0.000346  0.000446  0.000287  0.000370  0.000049  0.000043
                                 0.000036 -0.000072 -0.000063 -0.000053 -0.000124 -0.000107 -0.000091

                                   1 3d1+    1 3d1+    1 3d1+    1 3d1+    1 3d1+    1 3d1+    1 3d1+    1 5g1+    1 5g3+    1 5g1+ 
                                   1 5g3+    1 5g1+    1 5g3+    1 5g1+    1 5g3+    1 7i5+    1 7i3+    1 7i1+    1 7i5+    1 7i3+ 
                                   1 7i1+ 

   1.6   2    -0.6438  -16.4979  1.000269 -0.020583 -0.007868 -0.001199 -0.000215 -0.003924  0.000324 -0.000030 -0.000079 -0.000237
                                -0.000627 -0.000278 -0.000736 -0.000077 -0.000205 -0.000159 -0.000111 -0.000039 -0.000167 -0.000117
                                -0.000041

                                   1 3d1-    1 3d1-    1 3d1-    1 3d1-    1 3d1-    1 3d1-    1 3d1-    1 5g1-    1 5g3-    1 5g1- 
                                   1 5g3-    1 5g1-    1 5g3-    1 5g1-    1 5g3-    1 7i5-    1 7i3-    1 7i1-    1 7i5-    1 7i3- 
                                   1 7i1- 

   1.7   +    -0.7689  -16.8582  0.996748 -0.059105 -0.019352 -0.001029  0.000365  0.003518 -0.000115 -0.000345 -0.000304 -0.001411
                                -0.001245 -0.001411 -0.001244 -0.000440 -0.000388 -0.000293 -0.000342 -0.000360 -0.000342 -0.000399
                                -0.000421

 HOMO      4.1    -0.643800 =     -17.5187eV
 LUMO      2.3     0.025017 =       0.6807eV
 LUMO-HOMO         0.668817 =      18.1994eV


 **********************************************************************************************************************************
 DATASETS  * FILE   NREC   LENGTH (MB)   RECORD NAMES
              1      20      103.49       500      610      700      900      950      970     1000      129      960     1100   
                                          VAR    BASINP    GEOM    SYMINP    ZMAT    AOBASIS   BASIS     P2S    ABASIS      S 
                                         1400     1410     1420     1200     1210     1080     1600     1650     1300     1700   
                                         EKIN       V       ECP      H0       H01     AOSYM     SMH    MOLCAS    ERIS     OPER   

              2       4        2.94       700     1000      520     2100   
                                         GEOM     BASIS   MCVARS     RHF  

 PROGRAMS   *        TOTAL        HF       INT
 CPU TIMES  *        10.88      1.04      9.69
 REAL TIME  *        14.09 SEC
 DISK USED  *       343.34 MB      
 **********************************************************************************************************************************
 SETTING SCF(I)         =      -168.46256962  AU                              
 SETTING _CC_NORM_MAX   =         2.00000000                                  


 PROGRAM * CI (Multireference internally contracted CI)     Authors: H.-J. Werner, P.J. Knowles, 1987


 Convergence thresholds:  THRVAR = 1.00D-08  THRDEN = 1.00D-06

 Number of optimized states:  1  Roots:   1
 Number of reference states:  1  Roots:   1

 Reference symmetry:                   6   Triplet 
 Number of electrons:                 18
 Maximum number of shells:             3
 Maximum number of spin couplings:     9

 Reference space:        1 conf        1 CSFs
 N elec internal:       45 conf       45 CSFs
 N-1 el internal:       98 conf      226 CSFs
 N-2 el internal:       53 conf      325 CSFs

 Number of electrons in valence space:                     18
 Maximum number of open shell orbitals in reference space:  2
 Maximum number of open shell orbitals in internal spaces:  6


 Number of closed-shell orbitals:   8 (   4   1   1   0   1   1   0   0 )
 Number of active  orbitals:        2 (   0   0   0   1   0   0   1   0 )
 Number of external orbitals:     187 (  38  26  26  20  26  20  20  11 )

 Molecular orbitals read from record     2100.2  Type=RHF/CANONICAL (state 1.6)

 Integral transformation finished. Total CPU:   0.26 sec, npass=  1  Memory used:   0.36 MW

 Number of p-space configurations:   1

 Reference wavefunction optimized for reference space (refopt=1)

 State     Reference Energy 
   1        -168.46256962

 Number of blocks in overlap matrix:    97   Smallest eigenvalue:  0.10D+01
 Number of N-2 electron functions:      97
 Number of N-1 electron functions:     226

 Number of internal configurations:                    6
 Number of singly external configurations:          5030
 Number of doubly external configurations:        215744
 Total number of contracted configurations:       220780
 Total number of uncontracted configurations:     728894

 Diagonal Coupling coefficients finished.               Storage:   18328 words, CPU-Time:      0.00 seconds.
 Energy denominators for pairs finished in 1 passes.    Storage:  112516 words, CPU-time:      0.00 seconds.

  ITER. STATE  ROOT     SQ.NORM     CORR.ENERGY   TOTAL ENERGY   ENERGY CHANGE       DEN1      VAR(S)    VAR(P)      TIME
    1     1     1     1.00000000     0.00000000  -168.46256962    -0.00000000    -0.92854979  0.15D-01  0.11D+00     0.27
    2     1     1     1.08366352    -0.75300026  -169.21556988    -0.75300026    -0.02338123  0.19D-02  0.29D-02     1.00
    3     1     1     1.07478297    -0.77398017  -169.23654979    -0.02097992    -0.00068375  0.72D-04  0.12D-03     1.69
    4     1     1     1.07394818    -0.77460809  -169.23717771    -0.00062791    -0.00004016  0.71D-05  0.60D-05     2.40
    5     1     1     1.07395805    -0.77464836  -169.23721798    -0.00004028    -0.00000181  0.17D-06  0.26D-06     3.12
    6     1     1     1.07401450    -0.77465018  -169.23721980    -0.00000182    -0.00000007  0.69D-08  0.10D-07     3.83
    7     1     1     1.07401885    -0.77465026  -169.23721988    -0.00000008    -0.00000000  0.35D-09  0.31D-09     4.55


 =====================================
 Analysis of CPU times by interactions
 =====================================

       I      S      P

 I   0.0%
 S   0.2%   6.4%
 P   0.4%   2.2%  15.8%

 Initialization:   5.9%
 Other:           69.0%

 Total CPU:        4.6 seconds
 =====================================



 Reference coefficients greater than 0.0500000
 =============================================
 222222/22/           0.9642609



 RESULTS FOR STATE 1.6
 =====================

 Coefficient of reference function:   C(0) = 0.96426087 (fixed)   0.96426087 (relaxed)

 Energy contributions of configuration classes

 CLASS          SQ.NORM        ECORR1        ECORR2
 +++++++++++++++++++++++++++++++++++++++++++++++++++
 Internals    0.00138022   -0.00250538   -0.00332363
 Singles      0.01046674   -0.08205221   -0.08383060
 Pairs        0.06365427   -0.69009266   -0.68749603
 Total        1.07550123   -0.77465026   -0.77465026
 +++++++++++++++++++++++++++++++++++++++++++++++++++


 Reference energy                    -168.46256962
 Nuclear energy                         0.00000000
 Kinetic energy                       107.40687354
 One electron energy                 -300.01204875
 Two electron energy                  130.77482887
 Virial quotient                       -1.57566471
 Correlation energy                    -0.77465026
 !CI(SD) STATE 1.6 Energy            -169.237219876444

 Properties without orbital relaxation:

 !CI(SD) STATE 1.6 Dipole moment        0.00000000     0.00000000     0.00000000
 Dipole moment /Debye                   0.00000000     0.00000000     0.00000000

 Cluster corrected energies          -169.29570692 (Davidson, fixed reference)
 Cluster corrected energies          -169.29570692 (Davidson, relaxed reference)

 Cluster corrected energies          -169.29142993 (Pople, fixed reference)
 Cluster corrected energies          -169.29142993 (Pople, relaxed reference)

 

 !CI(SD) expec       <1.6|EKIN|1.6>   107.406873544406
 
 !CI(SD) expec        <1.6|POT|1.6>   -23.568914283024


 **********************************************************************************************************************************
 DATASETS  * FILE   NREC   LENGTH (MB)   RECORD NAMES
              1      21      106.90       500      610      700      900      950      970     1000      129      960     1100   
                                          VAR    BASINP    GEOM    SYMINP    ZMAT    AOBASIS   BASIS     P2S    ABASIS      S 
                                         1400     1410     1420     1200     1210     1080     1600     1650     1300     1700   
                                         EKIN       V       ECP      H0       H01     AOSYM     SMH    MOLCAS    ERIS     OPER   
                                         1380   
                                         JKOP   

              2       4        2.94       700     1000      520     2100   
                                         GEOM     BASIS   MCVARS     RHF  

 PROGRAMS   *        TOTAL        CI        HF       INT
 CPU TIMES  *        15.48      4.60      1.04      9.69
 REAL TIME  *        19.66 SEC
 DISK USED  *       343.34 MB      
 **********************************************************************************************************************************
 SETTING POSTHF(I)      =      -169.23721988  AU                              
                                                                                                                                                                                                                                                                

         SCF            POSTHF        EKIN          POT
    -168.4625696   -169.2372199   107.4068735   -23.56891428
                                                  

 CI/USERDEF energy=   -169.237219876444

        CI              HF-SCF  
   -169.23721988   -168.46256962
 **********************************************************************************************************************************
 Variable memory released
