
 Primary working directories    : /global/cscratch1/sd/aannabe
 Secondary working directories  : /global/cscratch1/sd/aannabe
 Wavefunction directory         : /global/homes/a/aannabe/wfu/
 Main file repository           : /global/cscratch1/sd/aannabe/

 SHA1      : 2873118e99aab1bc19f5b6fc1784693c06d15c95
 NAME      : 2015.1.8
 ARCHNAME  : linux/x86_64
 FC        : /opt/cray/pe/craype/2.5.5/bin/ftn
 BLASLIB   : -Wl,-_start-group /opt/intel/compilers_and_libraries_2016.3.210/linux/mkl/lib/intel64/libmkl_intel_ilp64.a /opt/intel/compilers_and_libraries_2016.3.210/linux/mkl/lib/intel64/libmkl_intel_thread.a /opt/intel/compilers_and_libraries_2016.3.210/linux/mkl/lib/intel64/libmkl_core.a -Wl,-_end-group
 id        : lbl

 Nodes     nprocs
 nid00471     1

 Using customized tuning parameters: mindgm=8; mindgv=16; mindgc=4; mindgr=1; noblas=0; minvec=7
 default implementation of scratch files=df  

 ***,Cr
 memory,8,g
 gthresh,twoint=1.e-12
 
 gprint,basis,orbitals
 gexpec,ekin,pot
 
 angstrom
 geometry={
 1                                                                               ! Number of atoms
 Cr 0.0 0.0 0.0
 }
 
 basis={
 Including file /global/homes/a/aannabe/docs/totals/pps/Cr.pp
 Including file /global/homes/a/aannabe/docs/totals/basis/aug-cc-pVnZ/Cr_dz.basis
 }
 
 {hf
 wf,14,1,6
 occ,4,1,1,1,1,1,1,0
 open,2.1,3.1,4.1,1.4,1.6,1.7
 sym,1,1,1,2,3
 }
 scf(i)=energy
 
 _CC_NORM_MAX=2.0
  !NOTE: Perturbative MRCC works only with UHF reference. So, here we will trick MRCC by doing zero UHF iteration right after ROHF.
 
 {uhf
 wf,14,1,6
 occ,4,1,1,1,1,1,1,0
 open,2.1,3.1,4.1,1.4,1.6,1.7
 sym,1,1,1,2,3
 maxit,0
 }
 scf(i)=energy
 
 {mrcc,method=CCSDT(Q)
 orbital,ignore_error=1                                                          !Ignore the fact that UHF WF is not converged
 maxit,100
 core
 }
 posthf(i)=energy
 
 table,scf,posthf,ekin,pot
 save,2.csv,new
 
 

 Variables initialized (889), CPU time= 0.01 sec
 Commands  initialized (702), CPU time= 0.01 sec, 572 directives.
 Default parameters read. Elapsed time= 0.12 sec

 Checking input...
 Passed
1


                                         ***  PROGRAM SYSTEM MOLPRO  ***
                                       Copyright, TTI GmbH Stuttgart, 2015
                                    Version 2015.1 linked Sep  7 2016 23:09:38


 **********************************************************************************************************************************
 LABEL *   Cr                                                                            
  64 bit serial version                                                                  DATE: 15-Jun-18          TIME: 14:31:52  
 **********************************************************************************************************************************

 SHA1:             2873118e99aab1bc19f5b6fc1784693c06d15c95
 **********************************************************************************************************************************

 THRESHOLDS:

 ZERO    =  1.00D-12  ONEINT  =  1.00D-12  TWOINT  =  1.00D-12  PREFAC  =  1.00D-14  LOCALI  =  1.00D-09  EORDER  =  1.00D-04
 ENERGY  =  0.00D+00  ETEST   =  0.00D+00  EDENS   =  0.00D+00  THRDEDEF=  1.00D-06  GRADIENT=  1.00D-02  STEP    =  1.00D-03
 ORBITAL =  1.00D-05  CIVEC   =  1.00D-05  COEFF   =  1.00D-04  PRINTCI =  5.00D-02  PUNCHCI =  9.90D+01  OPTGRAD =  3.00D-04
 OPTENERG=  1.00D-06  OPTSTEP =  3.00D-04  THRGRAD =  1.00D-10  COMPRESS=  1.00D-11  VARMIN  =  1.00D-07  VARMAX  =  1.00D-03
 THRDOUB =  0.00D+00  THRDIV  =  1.00D-05  THRRED  =  1.00D-07  THRPSP  =  1.00D+00  THRDC   =  1.00D-10  THRCS   =  1.00D-10
 THRNRM  =  1.00D-08  THREQ   =  0.00D+00  THRDE   =  1.00D+00  THRREF  =  1.00D-05  SPARFAC =  1.00D+00  THRDLP  =  1.00D-07
 THRDIA  =  1.00D-10  THRDLS  =  1.00D-07  THRGPS  =  0.00D+00  THRKEX  =  0.00D+00  THRDIS  =  2.00D-01  THRVAR  =  1.00D-10
 THRLOC  =  1.00D-06  THRGAP  =  1.00D-06  THRLOCT = -1.00D+00  THRGAPT = -1.00D+00  THRORB  =  1.00D-06  THRMLTP =  0.00D+00
 THRCPQCI=  1.00D-10  KEXTA   =  0.00D+00  THRCOARS=  0.00D+00  SYMTOL  =  1.00D-06  GRADTOL =  1.00D-06  THROVL  =  1.00D-08
 THRORTH =  1.00D-08  GRID    =  1.00D-06  GRIDMAX =  1.00D-03  DTMAX   =  0.00D+00  THROCCDE=  1.00D-01  THROCCDE=  1.00D-01



 ZUNIT=ANG
 

Geometry recognized as XYZ


 Variable memory set to 8000000000 words,  buffer space   230000 words

 SETTING BASIS          =    USERDEF


 Recomputing integrals since basis changed


 Using spherical harmonics



 PROGRAM * SEWARD (Integral evaluation for generally contracted gaussian basis sets)     Author: Roland Lindh, 1990

 Geometry written to block  1 of record 700

 Orientation using atomic masses  
 Molecule type: Atom
 Symmetry elements: X,Y,Z
 Rotational constants:       0.0000000      0.0000000      0.0000000 GHz  (calculated with average atomic masses)

 Point group  D2h 



 ATOMIC COORDINATES

 NR  ATOM    CHARGE       X              Y              Z

   1  CR     14.00    0.000000000    0.000000000    0.000000000


          CR  CORE POTENTIAL

          d POTENTIAL

 POWERS             1              3              2              2
 EXPONENTIALS   18.28091       17.09801       16.72267       5.028651    
 COEFFICIENTS   14.00000       255.9328      -132.0183     -0.7738876    

          s - d POTENTIAL

 POWERS             2              2
 EXPONENTIALS   16.90079       7.336622    
 COEFFICIENTS   219.4815       28.07933    

          p - d POTENTIAL

 POWERS             2              2
 EXPONENTIALS   17.31975       6.924098    
 COEFFICIENTS   139.9840       19.54836    


 BASIS DATA

   Nr Sym  Nuc  Type         Exponents   Contraction coefficients

    1.1 Ag    1  1s          73.977737     0.000864   -0.000183   -0.000327    0.000000
    2.1 Ag                   37.684349    -0.011595    0.002704    0.005309    0.000000
    3.1 Ag                   19.278723     0.090467   -0.022650   -0.046905    0.000000
    4.1 Ag                   12.130763    -0.024837    0.007181    0.015411    0.000000
                              7.453002    -0.330407    0.087705    0.191697    0.000000
                              3.756296    -0.200598    0.047616    0.099759    0.000000
                              2.084137     0.449766   -0.125672   -0.338994    0.000000
                              0.993314     0.647575   -0.244571   -0.695806    0.000000
                              0.483094     0.229025   -0.198419   -0.007315    0.000000
                              0.225854     0.009217    0.030889    1.118599    0.000000
                              0.115338     0.001132    0.423935    0.717257    0.000000
                              0.052134    -0.000367    0.576941   -0.868565    0.000000
                              0.023679     0.000092    0.148323   -0.467186    1.000000
    5.1 Ag    1  1s           0.011000     1.000000
    6.1 Ag    1  3d0        120.683729    -0.000006
                             42.646591     0.003111
                             21.154405     0.028641
                              9.708242     0.076222
                              4.614990     0.170595
                              2.243726     0.266908
                              1.086491     0.311039
                              0.524700     0.267312
                              0.255752     0.163336
                              0.121497     0.062782
                              0.054339     0.007872
    7.1 Ag    1  3d2+       120.683729    -0.000006
                             42.646591     0.003111
                             21.154405     0.028641
                              9.708242     0.076222
                              4.614990     0.170595
                              2.243726     0.266908
                              1.086491     0.311039
                              0.524700     0.267312
                              0.255752     0.163336
                              0.121497     0.062782
                              0.054339     0.007872
    8.1 Ag    1  3d0        120.683729     0.000017
                             42.646591    -0.003576
                             21.154405    -0.031476
                              9.708242    -0.087583
                              4.614990    -0.195740
                              2.243726    -0.270132
                              1.086491    -0.170034
                              0.524700     0.143412
                              0.255752     0.408687
                              0.121497     0.370257
                              0.054339     0.123112
    9.1 Ag    1  3d2+       120.683729     0.000017
                             42.646591    -0.003576
                             21.154405    -0.031476
                              9.708242    -0.087583
                              4.614990    -0.195740
                              2.243726    -0.270132
                              1.086491    -0.170034
                              0.524700     0.143412
                              0.255752     0.408687
                              0.121497     0.370257
                              0.054339     0.123112
   10.1 Ag    1  3d0        120.683729     0.000000
                             42.646591     0.000000
                             21.154405     0.000000
                              9.708242     0.000000
                              4.614990     0.000000
                              2.243726     0.000000
                              1.086491     0.000000
                              0.524700     0.000000
                              0.255752     0.000000
                              0.121497     0.000000
                              0.054339     1.000000
   11.1 Ag    1  3d2+       120.683729     0.000000
                             42.646591     0.000000
                             21.154405     0.000000
                              9.708242     0.000000
                              4.614990     0.000000
                              2.243726     0.000000
                              1.086491     0.000000
                              0.524700     0.000000
                              0.255752     0.000000
                              0.121497     0.000000
                              0.054339     1.000000
   12.1 Ag    1  3d0          0.026000     1.000000
   13.1 Ag    1  3d2+         0.026000     1.000000
    1.2 B3u   1  2px        101.951240     0.000088    0.000028   -0.000137    0.000000
    2.2 B3u                  52.309865    -0.000747   -0.000085    0.000932    0.000000
    3.2 B3u                  27.142574     0.007135   -0.000751   -0.006845    0.000000
    4.2 B3u                  15.066862    -0.014702    0.000844    0.019831    0.000000
                              9.693669    -0.073353    0.022656    0.043647    0.000000
                              4.985710     0.012007   -0.012781   -0.019289    0.000000
                              2.761266     0.283117   -0.062386   -0.281187    0.000000
                              1.417673     0.440786   -0.143581   -0.370298    0.000000
                              0.728201     0.306775   -0.062281   -0.199873    0.000000
                              0.378189     0.081804   -0.054471    1.028552    0.000000
                              0.189359     0.008839    0.377135    0.423711    0.000000
                              0.072301     0.001022    0.471633   -0.800926    0.000000
                              0.037471     0.000325    0.311624   -0.141910    1.000000
    5.2 B3u   1  2px          0.018000     1.000000
    6.2 B3u   1  4f1+         0.311720     1.000000
    7.2 B3u   1  4f3+         0.311720     1.000000
    8.2 B3u   1  4f1+         1.112997     1.000000
    9.2 B3u   1  4f3+         1.112997     1.000000
    1.3 B2u   1  2py        101.951240     0.000088    0.000028   -0.000137    0.000000
    2.3 B2u                  52.309865    -0.000747   -0.000085    0.000932    0.000000
    3.3 B2u                  27.142574     0.007135   -0.000751   -0.006845    0.000000
    4.3 B2u                  15.066862    -0.014702    0.000844    0.019831    0.000000
                              9.693669    -0.073353    0.022656    0.043647    0.000000
                              4.985710     0.012007   -0.012781   -0.019289    0.000000
                              2.761266     0.283117   -0.062386   -0.281187    0.000000
                              1.417673     0.440786   -0.143581   -0.370298    0.000000
                              0.728201     0.306775   -0.062281   -0.199873    0.000000
                              0.378189     0.081804   -0.054471    1.028552    0.000000
                              0.189359     0.008839    0.377135    0.423711    0.000000
                              0.072301     0.001022    0.471633   -0.800926    0.000000
                              0.037471     0.000325    0.311624   -0.141910    1.000000
    5.3 B2u   1  2py          0.018000     1.000000
    6.3 B2u   1  4f1-         0.311720     1.000000
    7.3 B2u   1  4f3-         0.311720     1.000000
    8.3 B2u   1  4f1-         1.112997     1.000000
    9.3 B2u   1  4f3-         1.112997     1.000000
    1.4 B1g   1  3d2-       120.683729    -0.000006    0.000017    0.000000
    2.4 B1g                  42.646591     0.003111   -0.003576    0.000000
    3.4 B1g                  21.154405     0.028641   -0.031476    0.000000
                              9.708242     0.076222   -0.087583    0.000000
                              4.614990     0.170595   -0.195740    0.000000
                              2.243726     0.266908   -0.270132    0.000000
                              1.086491     0.311039   -0.170034    0.000000
                              0.524700     0.267312    0.143412    0.000000
                              0.255752     0.163336    0.408687    0.000000
                              0.121497     0.062782    0.370257    0.000000
                              0.054339     0.007872    0.123112    1.000000
    4.4 B1g   1  3d2-         0.026000     1.000000
    1.5 B1u   1  2pz        101.951240     0.000088    0.000028   -0.000137    0.000000
    2.5 B1u                  52.309865    -0.000747   -0.000085    0.000932    0.000000
    3.5 B1u                  27.142574     0.007135   -0.000751   -0.006845    0.000000
    4.5 B1u                  15.066862    -0.014702    0.000844    0.019831    0.000000
                              9.693669    -0.073353    0.022656    0.043647    0.000000
                              4.985710     0.012007   -0.012781   -0.019289    0.000000
                              2.761266     0.283117   -0.062386   -0.281187    0.000000
                              1.417673     0.440786   -0.143581   -0.370298    0.000000
                              0.728201     0.306775   -0.062281   -0.199873    0.000000
                              0.378189     0.081804   -0.054471    1.028552    0.000000
                              0.189359     0.008839    0.377135    0.423711    0.000000
                              0.072301     0.001022    0.471633   -0.800926    0.000000
                              0.037471     0.000325    0.311624   -0.141910    1.000000
    5.5 B1u   1  2pz          0.018000     1.000000
    6.5 B1u   1  4f0          0.311720     1.000000
    7.5 B1u   1  4f2+         0.311720     1.000000
    8.5 B1u   1  4f0          1.112997     1.000000
    9.5 B1u   1  4f2+         1.112997     1.000000
    1.6 B2g   1  3d1+       120.683729    -0.000006    0.000017    0.000000
    2.6 B2g                  42.646591     0.003111   -0.003576    0.000000
    3.6 B2g                  21.154405     0.028641   -0.031476    0.000000
                              9.708242     0.076222   -0.087583    0.000000
                              4.614990     0.170595   -0.195740    0.000000
                              2.243726     0.266908   -0.270132    0.000000
                              1.086491     0.311039   -0.170034    0.000000
                              0.524700     0.267312    0.143412    0.000000
                              0.255752     0.163336    0.408687    0.000000
                              0.121497     0.062782    0.370257    0.000000
                              0.054339     0.007872    0.123112    1.000000
    4.6 B2g   1  3d1+         0.026000     1.000000
    1.7 B3g   1  3d1-       120.683729    -0.000006    0.000017    0.000000
    2.7 B3g                  42.646591     0.003111   -0.003576    0.000000
    3.7 B3g                  21.154405     0.028641   -0.031476    0.000000
                              9.708242     0.076222   -0.087583    0.000000
                              4.614990     0.170595   -0.195740    0.000000
                              2.243726     0.266908   -0.270132    0.000000
                              1.086491     0.311039   -0.170034    0.000000
                              0.524700     0.267312    0.143412    0.000000
                              0.255752     0.163336    0.408687    0.000000
                              0.121497     0.062782    0.370257    0.000000
                              0.054339     0.007872    0.123112    1.000000
    4.7 B3g   1  3d1-         0.026000     1.000000
    1.8 Au    1  4f2-         0.311720     1.000000
    2.8 Au    1  4f2-         1.112997     1.000000

 NUCLEAR CHARGE:                   14
 NUMBER OF PRIMITIVE AOS:         148
 NUMBER OF SYMMETRY AOS:          130
 NUMBER OF CONTRACTIONS:           54   (  13Ag  +   9B3u +   9B2u +   4B1g +   9B1u +   4B2g +   4B3g +   2Au  )
 NUMBER OF CORE ORBITALS:           4   (   1Ag  +   1B3u +   1B2u +   0B1g +   1B1u +   0B2g +   0B3g +   0Au  )
 NUMBER OF VALENCE ORBITALS:        6   (   3Ag  +   0B3u +   0B2u +   1B1g +   0B1u +   1B2g +   1B3g +   0Au  )


 NUCLEAR REPULSION ENERGY    0.00000000

 EXTRA SYMMETRY OF AOS IN SYMMETRY 1:   1 1 1 1 1 2 3 2 3 2   3 2 3
 EXTRA SYMMETRY OF AOS IN SYMMETRY 2:   1 1 1 1 1 2 3 2 3
 EXTRA SYMMETRY OF AOS IN SYMMETRY 3:   1 1 1 1 1 2 3 2 3
 EXTRA SYMMETRY OF AOS IN SYMMETRY 5:   1 1 1 1 1 2 3 2 3

 Eigenvalues of metric

         1 0.129E-01 0.140E+00 0.140E+00 0.211E+00 0.697E+00 0.697E+00 0.992E+00 0.100E+01
         2 0.224E-01 0.334E+00 0.575E+00 0.575E+00 0.902E+00 0.100E+01 0.143E+01 0.143E+01
         3 0.224E-01 0.334E+00 0.575E+00 0.575E+00 0.902E+00 0.100E+01 0.143E+01 0.143E+01
         4 0.140E+00 0.697E+00 0.101E+01 0.215E+01
         5 0.224E-01 0.334E+00 0.575E+00 0.575E+00 0.902E+00 0.100E+01 0.143E+01 0.143E+01
         6 0.140E+00 0.697E+00 0.101E+01 0.215E+01
         7 0.140E+00 0.697E+00 0.101E+01 0.215E+01
         8 0.575E+00 0.143E+01


 Contracted 2-electron integrals neglected if value below      1.0D-12
 AO integral compression algorithm  1   Integral accuracy      1.0D-12

     1.573 MB (compressed) written to integral file ( 71.0%)


 NUMBER OF SORTED TWO-ELECTRON INTEGRALS:     153544.     BUFFER LENGTH:  32768
 NUMBER OF SEGMENTS:   1  SEGMENT LENGTH:     153544      RECORD LENGTH: 524288

 Memory used in sort:       0.71 MW

 SORT1 READ      321044. AND WROTE      125920. INTEGRALS IN      1 RECORDS. CPU TIME:     0.01 SEC, REAL TIME:     0.02 SEC
 SORT2 READ      125920. AND WROTE      153544. INTEGRALS IN      6 RECORDS. CPU TIME:     0.03 SEC, REAL TIME:     0.05 SEC

 FILE SIZES:   FILE 1:    20.7 MBYTE,  FILE 4:     4.2 MBYTE,   TOTAL:     25.0 MBYTE

 OPERATOR DM      FOR CENTER  0  COORDINATES:    0.000000    0.000000    0.000000
 OPERATOR EKIN    FOR CENTER  0  COORDINATES:    0.000000    0.000000    0.000000
 OPERATOR POT     FOR CENTER  0  COORDINATES:    0.000000    0.000000    0.000000


 **********************************************************************************************************************************
 DATASETS  * FILE   NREC   LENGTH (MB)   RECORD NAMES
              1      20       19.93       500      610      700      900      950      970     1000      129      960     1100   
                                          VAR    BASINP    GEOM    SYMINP    ZMAT    AOBASIS   BASIS     P2S    ABASIS      S 
                                         1400     1410     1420     1200     1210     1080     1600     1650     1300     1700   
                                         EKIN       V       ECP      H0       H01     AOSYM     SMH    MOLCAS    ERIS     OPER   

 PROGRAMS   *        TOTAL       INT
 CPU TIMES  *         2.64      2.52
 REAL TIME  *        14.02 SEC
 DISK USED  *        25.25 MB      
 **********************************************************************************************************************************


 PROGRAM * RHF-SCF (OPEN SHELL)       Authors: W. Meyer, H.-J. Werner


 NUMBER OF ELECTRONS:      10+    4-    SPACE SYMMETRY=1    SPIN SYMMETRY: Septet  
 CONVERGENCE THRESHOLDS:    1.00E-05 (Density)    1.00E-07 (Energy)
 MAX. NUMBER OF ITERATIONS:       60
 INTERPOLATION TYPE:            DIIS
 INTERPOLATION STEPS:              2 (START)      1 (STEP)
 LEVEL SHIFTS:                 -0.60 (CLOSED) -0.30 (OPEN) 


 Singly occupied orbitals:      2.1       3.1       4.1       1.4       1.6       1.7
 
 Extra symmetries of mos in symmetry 1:   1   1   2   3

   Atom=CR basis=ECP10MDF_GUESS    lmin=0  lmax=2

 Orbital guess generated from atomic densities. Full valence occupancy:    4   1   1   1   1   1   1   0


 Molecular orbital dump at record        2100.2

 ITERATION    DDIFF          GRAD             ENERGY        2-EL.EN.            DIPOLE MOMENTS         DIIS   ORB.
    1      0.000D+00      0.000D+00       -86.00163078    133.196663    0.00000    0.00000    0.00000    0    start
    2      0.000D+00      0.308D-01       -86.04000053    128.526889    0.00000    0.00000    0.00000    1    diag,B
    3      0.175D-01      0.806D-02       -86.04562700    129.908008    0.00000    0.00000    0.00000    2    diag,B
    4      0.528D-02      0.236D-02       -86.04624415    129.809330    0.00000    0.00000    0.00000    3    diag,B
    5      0.290D-02      0.274D-03       -86.04632416    129.803639    0.00000    0.00000    0.00000    4    diag,B
    6      0.222D-02      0.107D-03       -86.04633608    129.788859    0.00000    0.00000    0.00000    5    diag,B
    7      0.751D-03      0.400D-04       -86.04633864    129.782959    0.00000    0.00000    0.00000    6    fixocc
    8      0.451D-03      0.115D-04       -86.04633876    129.781418    0.00000    0.00000    0.00000    7    diag,B
    9      0.125D-03      0.182D-05       -86.04633876    129.781464    0.00000    0.00000    0.00000    8    diag,B
   10      0.162D-04      0.290D-06       -86.04633876    129.781486    0.00000    0.00000    0.00000    9    orth
   11      0.141D-05      0.664D-07       -86.04633876    129.781492    0.00000    0.00000    0.00000    0    orth

 Final alpha occupancy:   4   1   1   1   1   1   1   0
 Final beta  occupancy:   1   1   1   0   1   0   0   0

 !RHF STATE 1.1 Energy                -86.046338758467
 Nuclear energy                         0.00000000
 One-electron energy                 -150.93708495
 Two-electron energy                   64.89074619
 Virial quotient                       -1.86044264
 !RHF STATE 1.1 Dipole moment           0.00000000     0.00000000     0.00000000
 Dipole moment /Debye                   0.00000000     0.00000000     0.00000000
 

 !RHF expec          <1.1|EKIN|1.1>    46.250465868759
 
 !RHF expec           <1.1|POT|1.1>   -14.865541385028

 ELECTRON ORBITALS
 =================


   Orb  Occ    Energy  Couls-En    Coefficients

                                   1 1s      1 1s      1 1s      1 1s      1 1s      1 3d0     1 3d2+    1 3d0     1 3d2+    1 3d0  
                                   1 3d2+    1 3d0     1 3d2+ 

   1.1   2    -3.3537  -16.9166  0.996616 -0.006262  0.013885  0.019605 -0.004195  0.000000 -0.000000  0.000000 -0.000000 -0.000000
                                -0.000000  0.000000 -0.000000

   2.1   +    -0.2242   -4.5793 -0.016029  0.957428 -0.034939  0.041838  0.007088 -0.000000  0.000000 -0.000000  0.000000  0.000000
                                 0.000000 -0.000000 -0.000000

   3.1   +    -0.3651   -9.6315 -0.000000 -0.000000  0.000000  0.000000 -0.000000  0.992006  0.000180  0.063763  0.000012  0.036932
                                 0.000007 -0.015120 -0.000003

   4.1   +    -0.3651   -9.6315  0.000000  0.000000 -0.000000 -0.000000  0.000000 -0.000180  0.992006 -0.000012  0.063763 -0.000007
                                 0.036932  0.000003 -0.015120

                                   1 2px     1 2px     1 2px     1 2px     1 2px     1 4f1+    1 4f3+    1 4f1+    1 4f3+ 

   1.2   2    -2.0664  -14.2538  0.998016  0.011951  0.036830  0.023358 -0.008019 -0.000000 -0.000000  0.000000 -0.000000

                                   1 2py     1 2py     1 2py     1 2py     1 2py     1 4f1-    1 4f3-    1 4f1-    1 4f3- 

   1.3   2    -2.0664  -14.2538  0.998016  0.011951  0.036830  0.023358 -0.008019 -0.000000  0.000000  0.000000  0.000000

                                   1 3d2-    1 3d2-    1 3d2-    1 3d2- 

   1.4   +    -0.3651   -9.6315  0.992006  0.063763  0.036932 -0.015120

                                   1 2pz     1 2pz     1 2pz     1 2pz     1 2pz     1 4f0     1 4f2+    1 4f0     1 4f2+ 

   1.5   2    -2.0664  -14.2538  0.998016  0.011951  0.036830  0.023358 -0.008019  0.000000 -0.000000 -0.000000  0.000000

                                   1 3d1+    1 3d1+    1 3d1+    1 3d1+ 

   1.6   +    -0.3651   -9.6315  0.992006  0.063763  0.036932 -0.015120

                                   1 3d1-    1 3d1-    1 3d1-    1 3d1- 

   1.7   +    -0.3651   -9.6315  0.992006  0.063763  0.036932 -0.015120

 HOMO      4.1    -0.365127 =      -9.9356eV
 LUMO      2.2     0.021811 =       0.5935eV
 LUMO-HOMO         0.386938 =      10.5291eV


 **********************************************************************************************************************************
 DATASETS  * FILE   NREC   LENGTH (MB)   RECORD NAMES
              1      20       19.93       500      610      700      900      950      970     1000      129      960     1100   
                                          VAR    BASINP    GEOM    SYMINP    ZMAT    AOBASIS   BASIS     P2S    ABASIS      S 
                                         1400     1410     1420     1200     1210     1080     1600     1650     1300     1700   
                                         EKIN       V       ECP      H0       H01     AOSYM     SMH    MOLCAS    ERIS     OPER   

              2       4        2.77       700     1000      520     2100   
                                         GEOM     BASIS   MCVARS     RHF  

 PROGRAMS   *        TOTAL        HF       INT
 CPU TIMES  *         2.68      0.04      2.52
 REAL TIME  *        14.20 SEC
 DISK USED  *        25.25 MB      
 **********************************************************************************************************************************
 SETTING SCF(I)         =       -86.04633876  AU                              
 SETTING _CC_NORM_MAX   =         2.00000000                                  


 PROGRAM * UHF-SCF       Authors: W. Meyer, H.-J. Werner


 NUMBER OF ELECTRONS:      10+    4-    SPACE SYMMETRY=1    SPIN SYMMETRY: Septet  
 CONVERGENCE THRESHOLDS:    1.00E-05 (Density)    1.00E-07 (Energy)
 MAX. NUMBER OF ITERATIONS:        0
 INTERPOLATION TYPE:            DIIS
 INTERPOLATION STEPS:              2 (START)      1 (STEP)
 LEVEL SHIFTS:                  0.20 (ALPHA)   0.20 (BETA) 


 Singly occupied orbitals:      2.1       3.1       4.1       1.4       1.6       1.7
 
 Extra symmetries of mos in symmetry 1:   1   1   2   3
 Molecular orbitals read from record     2100.2  Type=RHF/CANONICAL (state 1.1)

 Molecular orbital dump at record        2200.2

 Initial alpha occupation   4   1   1   1   1   1   1   0
 Initial beta  occupation   1   1   1   0   1   0   0   0

 ITERATION    DDIFF          GRAD             ENERGY        2-EL.EN.            DIPOLE MOMENTS         DIIS
    1      0.000D+00      0.000D+00       -86.04633876    129.781492    0.00000    0.00000    0.00000    0
 
 Final alpha occupancy:   4   1   1   1   1   1   1   0
 Final beta  occupancy:   1   1   1   0   1   0   0   0

 !UHF STATE 1.1 Energy                -86.046338758467
 Nuclear energy                         0.00000000
 One-electron energy                 -150.93708495
 Two-electron energy                   64.89074619
 Virial quotient                       -1.86044264
 !UHF STATE 1.1 Dipole moment           0.00000000     0.00000000     0.00000000
 Dipole moment /Debye                   0.00000000     0.00000000     0.00000000
 

 !UHF expec          <1.1|EKIN|1.1>    46.250465868759
 
 !UHF expec           <1.1|POT|1.1>   -14.865541385028

 ELECTRON ORBITALS FOR POSITIVE SPIN
 ===================================


   Orb  Occ    Energy  Couls-En    Coefficients

                                   1 1s      1 1s      1 1s      1 1s      1 1s      1 3d0     1 3d2+    1 3d0     1 3d2+    1 3d0  
                                   1 3d2+    1 3d0     1 3d2+ 

   1.1   +    -3.3537  -16.9166  0.996616 -0.006262  0.013885  0.019605 -0.004195  0.000000 -0.000000  0.000000 -0.000000 -0.000000
                                -0.000000  0.000000 -0.000000

   2.1   +    -0.2242   -4.5793 -0.016029  0.957428 -0.034939  0.041838  0.007088 -0.000000  0.000000 -0.000000  0.000000  0.000000
                                 0.000000 -0.000000 -0.000000

   3.1   +    -0.3651   -9.6315 -0.000000 -0.000000  0.000000  0.000000 -0.000000  0.992006  0.000180  0.063763  0.000012  0.036932
                                 0.000007 -0.015120 -0.000003

   4.1   +    -0.3651   -9.6315  0.000000  0.000000 -0.000000 -0.000000  0.000000 -0.000180  0.992006 -0.000012  0.063763 -0.000007
                                 0.036932  0.000003 -0.015120

                                   1 2px     1 2px     1 2px     1 2px     1 2px     1 4f1+    1 4f3+    1 4f1+    1 4f3+ 

   1.2   +    -2.0664  -14.2538  0.998016  0.011951  0.036830  0.023358 -0.008019 -0.000000 -0.000000  0.000000 -0.000000

                                   1 2py     1 2py     1 2py     1 2py     1 2py     1 4f1-    1 4f3-    1 4f1-    1 4f3- 

   1.3   +    -2.0664  -14.2538  0.998016  0.011951  0.036830  0.023358 -0.008019 -0.000000  0.000000  0.000000  0.000000

                                   1 3d2-    1 3d2-    1 3d2-    1 3d2- 

   1.4   +    -0.3651   -9.6315  0.992006  0.063763  0.036932 -0.015120

                                   1 2pz     1 2pz     1 2pz     1 2pz     1 2pz     1 4f0     1 4f2+    1 4f0     1 4f2+ 

   1.5   +    -2.0664  -14.2538  0.998016  0.011951  0.036830  0.023358 -0.008019  0.000000 -0.000000 -0.000000  0.000000

                                   1 3d1+    1 3d1+    1 3d1+    1 3d1+ 

   1.6   +    -0.3651   -9.6315  0.992006  0.063763  0.036932 -0.015120

                                   1 3d1-    1 3d1-    1 3d1-    1 3d1- 

   1.7   +    -0.3651   -9.6315  0.992006  0.063763  0.036932 -0.015120

 ELECTRON ORBITALS FOR NEGATIVE SPIN
 ===================================


   Orb  Occ    Energy  Couls-En    Coefficients

                                   1 1s      1 1s      1 1s      1 1s      1 1s      1 3d0     1 3d2+    1 3d0     1 3d2+    1 3d0  
                                   1 3d2+    1 3d0     1 3d2+ 

   1.1   -    -3.3537  -16.9166  0.996616 -0.006262  0.013885  0.019605 -0.004195  0.000000 -0.000000  0.000000 -0.000000 -0.000000
                                -0.000000  0.000000 -0.000000

                                   1 2px     1 2px     1 2px     1 2px     1 2px     1 4f1+    1 4f3+    1 4f1+    1 4f3+ 

   1.2   -    -2.0664  -14.2538  0.998016  0.011951  0.036830  0.023358 -0.008019 -0.000000 -0.000000  0.000000 -0.000000

                                   1 2py     1 2py     1 2py     1 2py     1 2py     1 4f1-    1 4f3-    1 4f1-    1 4f3- 

   1.3   -    -2.0664  -14.2538  0.998016  0.011951  0.036830  0.023358 -0.008019 -0.000000  0.000000  0.000000  0.000000

                                   1 2pz     1 2pz     1 2pz     1 2pz     1 2pz     1 4f0     1 4f2+    1 4f0     1 4f2+ 

   1.5   -    -2.0664  -14.2538  0.998016  0.011951  0.036830  0.023358 -0.008019  0.000000 -0.000000 -0.000000  0.000000

 HOMO      4.1    -0.365127 =      -9.9356eV
 LUMO     -1.4    -0.365127 =      -9.9356eV
 LUMO-HOMO        -0.000000 =      -0.0000eV

 EXPECTATION VALUE OF S**2:            12.00000000

 Occupation number threshold for canonical orbitals:  1.999000 (occupied),  0.001000 (virtual)

 Number of pseudo-canonical orbitals per symmetry:    1   1   1   0   1   0   0   0
 Number of active natural orbitals per symmetry:      3   0   0   1   0   1   1   0

 NATURAL CHARGE ORBITALS
 =======================


   Orb     Occ        Energy       Coefficients

                                   1 1s      1 1s      1 1s      1 1s      1 1s      1 3d0     1 3d2+    1 3d0     1 3d2+    1 3d0  
                                   1 3d2+    1 3d0     1 3d2+ 

   1.1  2.00000    -3.353675     0.996616 -0.006262  0.013885  0.019605 -0.004195  0.000000 -0.000000  0.000000 -0.000000 -0.000000
                                -0.000000  0.000000 -0.000000

   2.1  1.00000    -0.078324    -0.016029  0.957428 -0.034939  0.041838  0.007088 -0.000000  0.000000 -0.000000  0.000000  0.000000
                                 0.000000 -0.000000 -0.000000

   3.1  1.00000     0.053784    -0.000000 -0.000000  0.000000  0.000000 -0.000000  0.987831 -0.090918  0.063494 -0.005844  0.036776
                                -0.003385 -0.015057  0.001386

   4.1  1.00000     0.053784    -0.000000 -0.000000  0.000000  0.000000 -0.000000  0.090918  0.987831  0.005844  0.063494  0.003385
                                 0.036776 -0.001386 -0.015057

                                   1 2px     1 2px     1 2px     1 2px     1 2px     1 4f1+    1 4f3+    1 4f1+    1 4f3+ 

   1.2  2.00000    -2.066401     0.998016  0.011951  0.036830  0.023358 -0.008019 -0.000000 -0.000000  0.000000 -0.000000

                                   1 2py     1 2py     1 2py     1 2py     1 2py     1 4f1-    1 4f3-    1 4f1-    1 4f3- 

   1.3  2.00000    -2.066401     0.998016  0.011951  0.036830  0.023358 -0.008019 -0.000000  0.000000  0.000000  0.000000

                                   1 3d2-    1 3d2-    1 3d2-    1 3d2- 

   1.4  1.00000     0.053784     0.992006  0.063763  0.036932 -0.015120

                                   1 2pz     1 2pz     1 2pz     1 2pz     1 2pz     1 4f0     1 4f2+    1 4f0     1 4f2+ 

   1.5  2.00000    -2.066401     0.998016  0.011951  0.036830  0.023358 -0.008019  0.000000 -0.000000 -0.000000  0.000000

                                   1 3d1+    1 3d1+    1 3d1+    1 3d1+ 

   1.6  1.00000     0.053784     0.992006  0.063763  0.036932 -0.015120

                                   1 3d1-    1 3d1-    1 3d1-    1 3d1- 

   1.7  1.00000     0.053784     0.992006  0.063763  0.036932 -0.015120

 Natural orbitals saved to record    2200.2 (Orbital set 3)

 Orbital spaces for UNO-CAS (Min. occupation: 0.020  Max. occupation: 1.980):

 Closed:        1   1   1   0   1   0   0   0
 Active:        3   0   0   1   0   1   1   0

 No convergence



 **********************************************************************************************************************************
 DATASETS  * FILE   NREC   LENGTH (MB)   RECORD NAMES
              1      20       19.93       500      610      700      900      950      970     1000      129      960     1100   
                                          VAR    BASINP    GEOM    SYMINP    ZMAT    AOBASIS   BASIS     P2S    ABASIS      S 
                                         1400     1410     1420     1200     1210     1080     1600     1650     1300     1700   
                                         EKIN       V       ECP      H0       H01     AOSYM     SMH    MOLCAS    ERIS     OPER   

              2       5        5.29       700     1000      520     2100     2200   
                                         GEOM     BASIS   MCVARS     RHF      UHF  

 PROGRAMS   *        TOTAL       UHF        HF       INT
 CPU TIMES  *         2.71      0.02      0.04      2.52
 REAL TIME  *        14.37 SEC
 DISK USED  *        25.31 MB      
 **********************************************************************************************************************************
 SETTING SCF(I)         =       -86.04633876  AU                              


 PROGRAM * MRCC (General Multireference Coupled Cluster)    Author: M. Kallay, 2000-2005

 ***  Initialisation ***

   0 Spin projections
 
 Molecular orbitals read from record     2200.2  Type=UHF/ALPHA (state 1.1)

 ?Warning: UHF not converged
 Molecular orbitals read from record     2200.2  Type=UHF/BETA (state 1.1)

 ?Warning: UHF not converged
 
 Frozen orbitals:              0 (  0  0  0  0  0  0  0  0)
 Active orbitals:             54 ( 13  9  9  4  9  4  4  2)
 Active electrons:            14
 Spin quantum number:          3.0

 Transformed integrals will be written to file mrcc_32596/fort.55

 Load integrals                2.7 sec
 Transform integrals           2.8 sec
 Storage for integrals:         870545
 Remaining memory:           *********

 Core energy:               0.00000000
 
 MRCC Input:
     4     0     0     0     3     0     0     1     0     0     0     1     1     0     0     7     0     0   0.000     0   64000
  ex.lev,nsing,ntrip, rest,method,dens,conver,symm, diag, CS ,spatial, HF, ndoub,nacto,nactv, tol, maxex, sacc, freq,  dboc,   mem
  2  1  1  1  0  0  0  0  0  0  0  0  0  2  0  0  0  0  0  0  0  0  2  0  0  0  0  0  0  0  0  1  0  0  0  2  0  0  0  0  0  0  0  0  1  0  0  0  1  0  0  0  0  0
 MRCC Input end
 Variable memory released
 MRCC now being run, temporary output in /global/cscratch1/sd/aannabe/mrcc_32596/mrcc.out
 **********************************************************************
                          MRCC program system
 **********************************************************************

                              Written by
  Mihaly Kallay, Zoltan Rolik, Jozsef Csontos, Peter Nagy, Gyula Samu,
      David Mester, Jozsef Csoka, Bernat Szabo, Istvan Ladjanszki,
       Lorant Szegedy, Bence Ladoczki, Klara Petrov, Mate Farkas,
                    Pal D. Mezei, and Bence Hegely

        Department of Physical Chemistry and Materials Science
            Budapest University of Technology and Economics
                  Budapest P.O.Box 91, H-1521 Hungary

                              www.mrcc.hu

                       Release date: May 23, 2018

 ************************ 2018-06-15 14:32:21 *************************
 Executing goldstone...

 Generation of CC equations in terms of H and T...
 Generation of antisymmetrized Goldstone diagrams...
 Number of diagrams in T^1 equations:    15
 Number of diagrams in T^2 equations:    38
 Number of diagrams in T^3 equations:    49
 Number of diagrams in T^4 equations:     5
 Translation of diagrams to factorized equations...
 Optimizing intermediate calculation...
 Number of floating-point operations per iteration step:   2.2096E+11
 Probable CPU time per iteration step (hours):      2.21
 Required memory (Mbytes):    2911.1
 Number of intermediates:                                  80
 Number of intermediates to be stored:                     31
 Length of intermediate file (Mbytes):      43.2

 ************************ 2018-06-15 14:32:22 *************************
 Executing xmrcc...

 **********************************************************************
 CC(3)(4) calculation


 Allocation of2911.1 Mbytes of memory...
 Number of spinorbitals:                   108
 Number of alpha electrons:                       10
 Number of beta electrons:                         4
 Spin multiplicity:                     2
 z-component of spin:  3.0
 Spatial symmetry:                      1
 Convergence criterion:  1.0E-07
 Construction of occupation graphs...
 Number of                     0 -fold excitations:                      1
 Number of                     1 -fold excitations:                    105
 Number of                     2 -fold excitations:                  17830
 Number of                     3 -fold excitations:                1678306
 Total number of configurations:                1696242
 Calculation of coupling coefficients...
 Length of intermediate file (Mbytes):      30.7

 ======================================================================

 Spin case  1   Alpha:  0   Beta:  4
 Number of excitations:                  29032
 Spin case  2   Alpha:  1   Beta:  3
 Number of excitations:                4307584
 Spin case  3   Alpha:  2   Beta:  2
 Number of excitations:               39112326
 Spin case  4   Alpha:  3   Beta:  1
 Number of excitations:               39729296
 Spin case  5   Alpha:  4   Beta:  0
 Number of excitations:                3566444
 Number of                     4 -fold excitations:               86744682

 Memory requirements /Mbyte/:
               Minimal        Optimal
 Real*8:         52.2669        64.9216
 Integer:        12.3504
 Total:          64.6173        77.2720


 ************************ 2018-06-15 14:32:24 *************************
 Executing mrcc...

 **********************************************************************
 CCSDT(Q) calculation


 OpenMP parallel version is running.
 Number of CPUs:   1
 Allocation of   64.9 Mbytes of memory...
 Number of spinorbitals: 108
 Number of alpha electrons: 10
 Number of beta  electrons:  4
 Spin multiplicity: 2
 z-component of spin:  3.0
 Spatial symmetry: 1
 Convergence criterion:  1.0E-07
 Construction of occupation graphs...
 Number of 0-fold excitations: 1
 Number of 1-fold excitations: 105
 Number of 2-fold excitations: 17830
 Number of 3-fold excitations: 1678306
 Total number of determinants: 1696242
 Calculation of coupling coefficients...
 Initial cluster amplitudes are generated.
 Length of intermediate file (Mbytes):      30.7
 Reading integral list from unit 55...
 Sorting integrals...
 Sorting integrals...
 Sorting integrals...
 Sorting integrals...
 Energy of reference determinant [au]:     -86.046338758467
 Calculation of MP denominators...

 Starting CC iteration...
 ======================================================================
 Norm of residual vector:     1.33237611
 CPU time [min]:     0.400                   Wall time [min]:     0.407

 Iteration  1  CC energy:   -86.37346947  Energy decrease:   0.32713071
 ======================================================================
 Norm of residual vector:     0.28086762
 CPU time [min]:     0.772                   Wall time [min]:     0.795

 Iteration  2  CC energy:   -86.36317097  Energy decrease:   0.01029850
 ======================================================================
 Norm of residual vector:     0.08730713
 CPU time [min]:     1.175                   Wall time [min]:     1.214

 Iteration  3  CC energy:   -86.37295076  Energy decrease:   0.00977980
 ======================================================================
 Norm of residual vector:     0.03100195
 CPU time [min]:     1.565                   Wall time [min]:     1.608

 Iteration  4  CC energy:   -86.37837995  Energy decrease:   0.00542918
 ======================================================================
 Norm of residual vector:     0.01472566
 CPU time [min]:     1.935                   Wall time [min]:     1.982

 Iteration  5  CC energy:   -86.37848397  Energy decrease:   0.00010402
 ======================================================================
 Norm of residual vector:     0.00751441
 CPU time [min]:     2.308                   Wall time [min]:     2.359

 Iteration  6  CC energy:   -86.37788467  Energy decrease:   0.00059929
 ======================================================================
 Norm of residual vector:     0.00304782
 CPU time [min]:     2.686                   Wall time [min]:     2.741

 Iteration  7  CC energy:   -86.37781015  Energy decrease:   0.00007452
 ======================================================================
 Norm of residual vector:     0.00139665
 CPU time [min]:     3.062                   Wall time [min]:     3.121

 Iteration  8  CC energy:   -86.37786994  Energy decrease:   0.00005978
 ======================================================================
 Norm of residual vector:     0.00063248
 CPU time [min]:     3.439                   Wall time [min]:     3.502

 Iteration  9  CC energy:   -86.37790308  Energy decrease:   0.00003315
 ======================================================================
 Norm of residual vector:     0.00027073
 CPU time [min]:     3.830                   Wall time [min]:     3.897

 Iteration 10  CC energy:   -86.37790872  Energy decrease:   0.00000564
 ======================================================================
 Norm of residual vector:     0.00012848
 CPU time [min]:     4.258                   Wall time [min]:     4.329

 Iteration 11  CC energy:   -86.37790905  Energy decrease:   0.00000033
 ======================================================================
 Norm of residual vector:     0.00004540
 CPU time [min]:     4.668                   Wall time [min]:     4.767

 Iteration 12  CC energy:   -86.37790870  Energy decrease:   0.00000035
 ======================================================================
 Norm of residual vector:     0.00002232
 CPU time [min]:     5.095                   Wall time [min]:     5.206

 Iteration 13  CC energy:   -86.37790882  Energy decrease:   0.00000012
 ======================================================================
 Norm of residual vector:     0.00000956
 CPU time [min]:     5.520                   Wall time [min]:     5.633

 Iteration 14  CC energy:   -86.37790902  Energy decrease:   0.00000020
 ======================================================================
 Norm of residual vector:     0.00000392
 CPU time [min]:     5.916                   Wall time [min]:     6.040

 Iteration 15  CC energy:   -86.37790901  Energy decrease:   0.00000001
 ======================================================================
 Norm of residual vector:     0.00000184
 CPU time [min]:     6.308                   Wall time [min]:     6.436

 Iteration 16  CC energy:   -86.37790899  Energy decrease:   0.00000002
 ======================================================================
 Norm of residual vector:     0.00000080
 CPU time [min]:     6.724                   Wall time [min]:     6.857

 Iteration 17  CC energy:   -86.37790900  Energy decrease:   4.0854E-09
 ======================================================================
 Norm of residual vector:     0.00000034
 CPU time [min]:     7.165                   Wall time [min]:     7.300

 Iteration 18  CC energy:   -86.37790900  Energy decrease:   0.00000001
 ======================================================================
 Norm of residual vector:     0.00000013
 CPU time [min]:     7.602                   Wall time [min]:     7.742

 Iteration 19  CC energy:   -86.37790901  Energy decrease:   1.7346E-09
 ======================================================================
 Norm of residual vector:     0.00000005
 CPU time [min]:     7.967                   Wall time [min]:     8.113

 Iteration 20  CC energy:   -86.37790900  Energy decrease:   7.6187E-10
 ======================================================================

 Iteration has converged in 20 steps.

 Final results:
 Total CCSDT energy [au]:            -86.377909004420
 Total MP2 energy [au]:              -86.373469465579

 Perturbative corrections are calculated...
 ======================================================================
 Spin case  1   Alpha:  0   Beta:  4
 Number of excitations:        29032
 CPU time [min]:     8.213                   Wall time [min]:     8.360
 ======================================================================
 Spin case  2   Alpha:  1   Beta:  3
 Number of excitations:        4307584
 CPU time [min]:    13.180                   Wall time [min]:    13.331
 ======================================================================
 Spin case  3   Alpha:  2   Beta:  2
 Number of excitations:        39112326
 CPU time [min]:    27.157                   Wall time [min]:    27.317
 ======================================================================
 Spin case  4   Alpha:  3   Beta:  1
 Number of excitations:        39729296
 CPU time [min]:    35.457                   Wall time [min]:    35.619
 ======================================================================
 Spin case  5   Alpha:  4   Beta:  0
 Number of excitations:        3566444
 CPU time [min]:    36.316                   Wall time [min]:    36.478
 ======================================================================
 Number of 4-fold excitations: 86744682
 CPU time [min]:    36.316                   Wall time [min]:    36.478

 Total CCSDT[Q] energy [au]:         -86.377403765672
 Total CCSDT(Q) energy [au]:         -86.377953563656

 ************************ 2018-06-15 15:08:53 *************************
                      Normal termination of mrcc.
 **********************************************************************
 !CCSDT STATE 1.1 Energy              -86.377909004420
 !MP2 STATE 1.1 Energy                -86.373469465579
 !CCSDT[Q] STATE 1.1 Energy           -86.377403765672
 !CCSDT(Q) STATE 1.1 Energy           -86.377953563656
 
 CPU-time for MRCC:           2179.0 sec
 Elapsed-time for MRCC:       2195.0 sec

 Variable memory set to 8000000000 words,  buffer space   230000 words



 **********************************************************************************************************************************
 DATASETS  * FILE   NREC   LENGTH (MB)   RECORD NAMES
              1      20       19.93       500      610      700      900      950      970     1000      129      960     1100   
                                          VAR    BASINP    GEOM    SYMINP    ZMAT    AOBASIS   BASIS     P2S    ABASIS      S 
                                         1400     1410     1420     1200     1210     1080     1600     1650     1300     1700   
                                         EKIN       V       ECP      H0       H01     AOSYM     SMH    MOLCAS    ERIS     OPER   

              2       5        5.29       700     1000      520     2100     2200   
                                         GEOM     BASIS   MCVARS     RHF      UHF  

 PROGRAMS   *        TOTAL      MRCC       UHF        HF       INT
 CPU TIMES  *      2183.54   2180.83      0.02      0.04      2.52
 REAL TIME  *      2221.97 SEC
 DISK USED  *        25.31 MB      
 **********************************************************************************************************************************
 SETTING POSTHF(I)      =       -86.37795356  AU                              
                                                                                                                                                                                                                                                                

        SCF            POSTHF        EKIN           POT
    -86.04633876   -86.37795356   46.25046587   -14.86554139
                                                  

 CCSDT(Q)/USERDEF energy=    -86.377953563656

        CCSDT(Q)        UHF-SCF         HF-SCF  
    -86.37795356    -86.04633876    -86.04633876
 **********************************************************************************************************************************
 Variable memory released
