TACC:  Starting up job 2811642 
TACC:  Starting parallel tasks... 
  Input file(s): K.log.qmc.in-wfj.xml 

=====================================================
                    QMCPACK 3.6.0

       (c) Copyright 2003-  QMCPACK developers

                    Please cite:
 J. Kim et al. J. Phys. Cond. Mat. 30 195901 (2018)
      https://doi.org/10.1088/1361-648X/aab9c3

  Git branch: develop
  Last git commit: 8025d469c3748fa6a35dc38bfa5b192a28e9e66e
  Last git commit date: Mon Jan 14 15:08:34 2019 -0600
  Last git commit subject: Merge pull request #1314 from prckent/update_citations
=====================================================
  Global options 

  MPI Nodes             = 1024
  MPI Nodes per group   = 1024
  MPI Group ID          = 0
  OMP 1st level threads = 1
  OMP nested threading disabled or only 1 thread on the 2nd level

  Precision used in this calculation, see definitions in the manual:
  Base precision      = double
  Full precision      = double

  Structure-of-arrays (SoA) optimization enabled

  Input XML = K.log.qmc.in-wfj.xml

  Project = K.log
  date    = 2019-01-23 14:17:46 CST
  host    = c455-001.stampede2.tacc.utexas.edu

 Random Number
 -------------
  Offset for the random number seeds based on time: 1002

  Range of prime numbers to use as seeds over processors and threads = 7949-17657


 Particle Set 
 ------------
  Name: ion0
  All the species have the same mass 1
  Particle set size: 1

 Particle Set 
 ------------
  Name: e
  All the species have the same mass 1
  Particle set size: 9

 Wavefunction setup: 
 ------------------- 
  Name: psi0
  LCAO: SoaAtomicBasisSet<MultiQuintic,0>

  Distance table for similar particles (A-A):
    source/target: e
    Using structure-of-arrays (SoA) data layout
    Distance computations use open boundary conditions in 3D.


  Distance table for dissimilar particles (A-B):
    source: ion0  target: e
    Using structure-of-arrays (SoA) data layout
    Distance computations use open boundary conditions in 3D.

Reading BasisSet from HDF5 file:K.log.orbs.h5
<input node="atomicBasisSet" name="Gaussian" expandYlm="Gamess" angular="cartesian" elementType="K" normalized="no" type="Numerical" expM="0" />
  AO BasisSet for K
   Angular momentum expanded in cartesian functions x^lx y^ly z^lz according to Gamess
   Grid is created by the input paremters in h5
    Using log grid ri = 1e-06 rf = 100 npts = 1001
   R(n,l,m,s) 0 0 0 0
   R(n,l,m,s) 1 0 0 0
   R(n,l,m,s) 2 1 0 0
   R(n,l,m,s) 3 1 0 0
   R(n,l,m,s) 4 2 0 0
   R(n,l,m,s) 5 0 0 0
   R(n,l,m,s) 6 0 0 0
   R(n,l,m,s) 7 0 0 0
   R(n,l,m,s) 8 0 0 0
   R(n,l,m,s) 9 0 0 0
   R(n,l,m,s) 10 0 0 0
   R(n,l,m,s) 11 0 0 0
   R(n,l,m,s) 12 1 0 0
   R(n,l,m,s) 13 1 0 0
   R(n,l,m,s) 14 1 0 0
   R(n,l,m,s) 15 1 0 0
   R(n,l,m,s) 16 1 0 0
   R(n,l,m,s) 17 1 0 0
   R(n,l,m,s) 18 2 0 0
   R(n,l,m,s) 19 2 0 0
   R(n,l,m,s) 20 2 0 0
   R(n,l,m,s) 21 2 0 0
   R(n,l,m,s) 22 2 0 0
   R(n,l,m,s) 23 2 0 0
   R(n,l,m,s) 24 3 0 0
   R(n,l,m,s) 25 3 0 0
   R(n,l,m,s) 26 3 0 0
   R(n,l,m,s) 27 3 0 0
   R(n,l,m,s) 28 4 0 0
   R(n,l,m,s) 29 4 0 0
Expanding Ylm (angular function) according to Gamess using cartesian gaussians
Adding 1 cartesian gaussian orbitals for l= 0
Adding 1 cartesian gaussian orbitals for l= 0
Adding 3 cartesian gaussian orbitals for l= 1
Adding 3 cartesian gaussian orbitals for l= 1
Adding 6 cartesian gaussian orbitals for l= 2
Adding 1 cartesian gaussian orbitals for l= 0
Adding 1 cartesian gaussian orbitals for l= 0
Adding 1 cartesian gaussian orbitals for l= 0
Adding 1 cartesian gaussian orbitals for l= 0
Adding 1 cartesian gaussian orbitals for l= 0
Adding 1 cartesian gaussian orbitals for l= 0
Adding 1 cartesian gaussian orbitals for l= 0
Adding 3 cartesian gaussian orbitals for l= 1
Adding 3 cartesian gaussian orbitals for l= 1
Adding 3 cartesian gaussian orbitals for l= 1
Adding 3 cartesian gaussian orbitals for l= 1
Adding 3 cartesian gaussian orbitals for l= 1
Adding 3 cartesian gaussian orbitals for l= 1
Adding 6 cartesian gaussian orbitals for l= 2
Adding 6 cartesian gaussian orbitals for l= 2
Adding 6 cartesian gaussian orbitals for l= 2
Adding 6 cartesian gaussian orbitals for l= 2
Adding 6 cartesian gaussian orbitals for l= 2
Adding 6 cartesian gaussian orbitals for l= 2
Adding 10 cartesian gaussian orbitals for l= 3
Adding 10 cartesian gaussian orbitals for l= 3
Adding 10 cartesian gaussian orbitals for l= 3
Adding 10 cartesian gaussian orbitals for l= 3
Adding 15 cartesian gaussian orbitals for l= 4
Adding 15 cartesian gaussian orbitals for l= 4
   Maximum Angular Momentum  = 4
   Number of Radial functors = 30
   Basis size                = 145

  Created SPOSet builder named 'LCAOBSet' of type molecularorbital
Reuse SPOSetBuilder "LCAOBSet" type MolecularOrbital
  Building SPOSet '' with '' basis set.
Reuse SPOSetBuilder "LCAOBSet" type MolecularOrbital
  Building SPOSet '' with '' basis set.
  Creating a determinant updet group=0 sposet=updet
  Reusing a SPO set updet
Using DiracDeterminant
Using rank-1 Sherman-Morrison Fahy update

  Creating a determinant downdet group=1 sposet=downdet
  Reusing a SPO set downdet
Using DiracDeterminant
Using rank-1 Sherman-Morrison Fahy update

  FermionWF = SlaterDet
  RadialJastrowBuilder adds a functor with cusp = -0.25
 size = 10 parameters 
 cusp = -0.25
 rcut = 18
Parameter     Name      Value
uu_0 0 1 1  ON 0
uu_1 0 1 1  ON 1
uu_2 0 1 1  ON 2
uu_3 0 1 1  ON 3
uu_4 0 1 1  ON 4
uu_5 0 1 1  ON 5
uu_6 0 1 1  ON 6
uu_7 0 1 1  ON 7
uu_8 0 1 1  ON 8
uu_9 0 1 1  ON 9
  RadialJastrowBuilder adds a functor with cusp = -0.5
 size = 10 parameters 
 cusp = -0.5
 rcut = 18
Parameter     Name      Value
ud_0 0 1 1  ON 0
ud_1 0 1 1  ON 1
ud_2 0 1 1  ON 2
ud_3 0 1 1  ON 3
ud_4 0 1 1  ON 4
ud_5 0 1 1  ON 5
ud_6 0 1 1  ON 6
ud_7 0 1 1  ON 7
ud_8 0 1 1  ON 8
ud_9 0 1 1  ON 9
 size = 10 parameters 
 cusp = 0
 rcut = 18
Parameter     Name      Value
eK_0 0 1 1  ON 0
eK_1 0 1 1  ON 1
eK_2 0 1 1  ON 2
eK_3 0 1 1  ON 3
eK_4 0 1 1  ON 4
eK_5 0 1 1  ON 5
eK_6 0 1 1  ON 6
eK_7 0 1 1  ON 7
eK_8 0 1 1  ON 8
eK_9 0 1 1  ON 9
Expected 26 parameters, but found 0 in PolynomialFunctor3D.
Expected 26 parameters, but found 0 in PolynomialFunctor3D.
  QMCHamiltonian::addOperator Kinetic to H, physical Hamiltonian 
  QMCHamiltonian::addOperator ElecElec to H, physical Hamiltonian 
QMCHamiltonian::addOperatorType added type coulomb named ElecElec
  CoulombAA for ion0 is not created.  Number of particles == 1 and nonPeriodic

  ECPotential builder for pseudopotential 

  Adding pseudopotential for K
   Linear grid  ri=0 rf=10 npts = 10001
    ECPComponentBuilder::buildSemiLocalAndLocal 
    Assuming Hartree unit
   Number of angular momentum channels 3
   Maximum angular momentum channel 2
   Creating a Linear Grid Rmax=1.805
  Using global grid with delta = 0.001
   Making L=2 a local potential with a radial cutoff of 9.999
    Non-local pseudopotential parameters
    Maximum angular mementum = 1
    Number of non-local channels = 2
       l(0)=0
       l(1)=1
    Cutoff radius = 1.805
    Spherical grids and weights: 
                        1                 0                 0       0.08333333333
                       -1   1.224646799e-16                 0       0.08333333333
             0.4472135955       0.894427191                 0       0.08333333333
            -0.4472135955      0.7236067977      0.5257311121       0.08333333333
             0.4472135955      0.2763932023      0.8506508084       0.08333333333
            -0.4472135955     -0.2763932023      0.8506508084       0.08333333333
             0.4472135955     -0.7236067977      0.5257311121       0.08333333333
            -0.4472135955      -0.894427191   1.095357397e-16       0.08333333333
             0.4472135955     -0.7236067977     -0.5257311121       0.08333333333
            -0.4472135955     -0.2763932023     -0.8506508084       0.08333333333
             0.4472135955      0.2763932023     -0.8506508084       0.08333333333
            -0.4472135955      0.7236067977     -0.5257311121       0.08333333333
    Maximum cutoff radius 1.805
  QMCHamiltonian::addOperator LocalECP to H, physical Hamiltonian 

  Using NonLocalECP potential 
    Maximum grid on a sphere for NonLocalECPotential: 12
  QMCHamiltonian::addOperator NonLocalECP to H, physical Hamiltonian 
QMCHamiltonian::addOperatorType added type pseudo named PseudoPot

  QMCHamiltonian::add2WalkerProperty added
    4 to P::PropertyList 
    0 to P::Collectables 
    starting Index of the observables in P::PropertyList = 9
ParticleSetPool::randomize 
<init source="ion0" target="e">
</init>
  Initialization Execution time = 0.6523 secs
=========================================================
 Summary of QMC systems 
=========================================================
ParticleSetPool has: 

  ParticleSet e : 0 5 9 

    9

    u -1.3662276797e+00 -6.6978759567e-01  1.5223292474e+00
    u -1.6130045598e+00 -9.2041212368e-01 -6.5380490400e-01
    u -7.7971437261e-01  7.1580984201e-01 -1.8139330525e+00
    u  2.9104216889e-01  3.5152738593e-01  1.9969955642e+00
    u -1.7015728164e+00  4.0860098175e-01  1.4468510541e+00
    d  3.7774198366e-01  1.4878927117e+00  8.4431454292e-01
    d -8.6742346090e-01 -5.9590397588e-01  7.7243425126e-01
    d -2.0834183774e+00 -3.2426875338e+00 -1.7983642995e+00
    d -1.2155559894e+00  1.8122570203e+00 -1.5535412242e+00

  ParticleSet ion0 : 0 1 

    1

    K  0.0000000000e+00  0.0000000000e+00  0.0000000000e+00

  Hamiltonian h0
  Kinetic         Kinetic energy
  ElecElec        CoulombAA source/target e

  LocalECP        LocalECPotential: ion0
  NonLocalECP     NonLocalECPotential: ion0

=========================================================
  Start VMC
  File Root K.log.s000 append = no 
=========================================================
  Adding 1 walkers to 0 existing sets
  Total number of walkers: 1.0240000000e+03
  Total weight: 1.0240000000e+03
  Resetting Properties of the walkers 1 x 13

<vmc function="put">
  qmc_counter=0  my_counter=0
  time step      = 1.5000000000e-01
  blocks         = 200
  steps          = 1
  substeps       = 5
  current        = 0
  target samples = 1.0240000000e+03
  walkers/mpi    = 1

  stepsbetweensamples = 200
<parameter name="blocks" condition="int">200</parameter>
<parameter name="blocks_between_recompute" condition="int">0</parameter>
<parameter name="check_properties" condition="int">100</parameter>
<parameter name="checkproperties" condition="int">100</parameter>
<parameter name="current" condition="int">0</parameter>
<parameter name="dmcwalkersperthread" condition="real">1.0000000000e+00</parameter>
<parameter name="maxcpusecs" condition="real">3.6000000000e+05</parameter>
<parameter name="record_configs" condition="int">0</parameter>
<parameter name="record_walkers" condition="int">200</parameter>
<parameter name="recordconfigs" condition="int">0</parameter>
<parameter name="recordwalkers" condition="int">200</parameter>
<parameter name="rewind" condition="int">0</parameter>
<parameter name="samples" condition="real">1.0240000000e+03</parameter>
<parameter name="samplesperthread" condition="real">1.0000000000e+00</parameter>
<parameter name="steps" condition="int">1</parameter>
<parameter name="stepsbetweensamples" condition="int">200</parameter>
<parameter name="store_configs" condition="int">0</parameter>
<parameter name="storeconfigs" condition="int">0</parameter>
<parameter name="sub_steps" condition="int">5</parameter>
<parameter name="substeps" condition="int">5</parameter>
<parameter name="tau" condition="au">1.5000000000e-01</parameter>
<parameter name="time_step" condition="au">1.5000000000e-01</parameter>
<parameter name="timestep" condition="au">1.5000000000e-01</parameter>
<parameter name="use_drift" condition="string">no</parameter>
<parameter name="usedrift" condition="string">no</parameter>
<parameter name="walkers" condition="int">1</parameter>
<parameter name="warmup_steps" condition="int">100</parameter>
<parameter name="warmupsteps" condition="int">100</parameter>
  DumpConfig==false Nothing (configurations, state) will be saved.
  Walker Samples are dumped every 200 steps.
</vmc>
  Initial partition of walkers 0 1 

  Using Particle by Particle moves
  Walker moves without drift
  Total Sample Size   =1024
  Walker distribution on root = 0 1 
  Using Locality Approximation
===== Memory Usage after the buffer registration =====
Available memory on node 0, free + buffers : 84729 MB
Memory footprint by rank 0 on node 0       : 75 MB
==================================================
  Anonymous Buffer size per walker : 3840 Bytes.
MEMORY increase 0 MB VMC::resetRun
====================================================
  SimpleFixedNodeBranch::finalize after a VMC block
    QMC counter        = 0
    time step          = 0.15
    reference energy   = -28.0154
    reference variance = 0.775767
====================================================
  QMC Execution time = 1.1902e+00 secs
Loop execution max-interations = 5

=========================================================
  Start QMCFixedSampleLinearOptimize
  File Root K.log.s001 append = no 
=========================================================
  Skip QMCDriver::putQMCInfo 
  Resetting Properties of the walkers 1 x 13

=========================================================
  Start VMC
  File Root K.log.s001 append = no 
=========================================================
  Using the current 1 walkers.
  Total number of walkers: 1.0240e+03
  Total weight: 1.0240e+03
  Resetting Properties of the walkers 1 x 13

<vmc function="put">
  qmc_counter=0  my_counter=0
  time step      = 1.5000e-01
  blocks         = 200
  steps          = 2
  substeps       = 5
  current        = 0
  target samples = 2.5600e+05
  walkers/mpi    = 1

  stepsbetweensamples = 1
<parameter name="blocks" condition="int">200</parameter>
<parameter name="blocks_between_recompute" condition="int">0</parameter>
<parameter name="check_properties" condition="int">100</parameter>
<parameter name="checkproperties" condition="int">100</parameter>
<parameter name="current" condition="int">0</parameter>
<parameter name="dmcwalkersperthread" condition="real">2.5000e+02</parameter>
<parameter name="maxcpusecs" condition="real">3.6000e+05</parameter>
<parameter name="record_configs" condition="int">0</parameter>
<parameter name="record_walkers" condition="int">1</parameter>
<parameter name="recordconfigs" condition="int">0</parameter>
<parameter name="recordwalkers" condition="int">1</parameter>
<parameter name="rewind" condition="int">0</parameter>
<parameter name="samples" condition="real">2.5600e+05</parameter>
<parameter name="samplesperthread" condition="real">2.5000e+02</parameter>
<parameter name="steps" condition="int">2</parameter>
<parameter name="stepsbetweensamples" condition="int">1</parameter>
<parameter name="store_configs" condition="int">0</parameter>
<parameter name="storeconfigs" condition="int">0</parameter>
<parameter name="sub_steps" condition="int">5</parameter>
<parameter name="substeps" condition="int">5</parameter>
<parameter name="tau" condition="au">1.5000e-01</parameter>
<parameter name="time_step" condition="au">1.5000e-01</parameter>
<parameter name="timestep" condition="au">1.5000e-01</parameter>
<parameter name="use_drift" condition="string">no</parameter>
<parameter name="usedrift" condition="string">no</parameter>
<parameter name="walkers" condition="int">1</parameter>
<parameter name="warmup_steps" condition="int">0</parameter>
<parameter name="warmupsteps" condition="int">0</parameter>
  DumpConfig==false Nothing (configurations, state) will be saved.
  Walker Samples are dumped every 1 steps.
</vmc>
    Restarting, cummulative properties:
      energy     = -2.8015e+01
      variance   = 0.0000e+00
      r2accepted = 1.0000e-10
      r2proposed = 1.0000e-10
 Using QMCCostFunction::QMCCostFunction
  EstimatorManagerBase::add replace LocalEnergy estimator.
<optimization-report>
<vmc stage="main" blocks="200">
  Cannot make clones again. Use existing 1 clones
  Initial partition of walkers 0 1 

  Using Particle by Particle moves
  Walker moves without drift
  Total Sample Size   =256000
  Walker distribution on root = 0 1 
  Using Locality Approximation
===== Memory Usage after the buffer registration =====
Available memory on node 0, free + buffers : 84709 MB
Memory footprint by rank 0 on node 0       : 75 MB
==================================================
  Anonymous Buffer size per walker : 3840 Bytes.
MEMORY increase 0 MB VMC::resetRun
====================================================
  SimpleFixedNodeBranch::finalize after a VMC block
    QMC counter        = 1
    time step          = 0.15
    reference energy   = -28.0253
    reference variance = 0.837066
====================================================
  Execution time = 1.6567e+00
</vmc>
<opt stage="setup">
  <log>
   Reading configurations from h5FileRoot K.log.s001
  QMCCostFunction is created with 1 threads.
  Using Nonlocal PP in Opt: NonLocalECP
   Number of samples loaded to each thread : 250 
  VMC Eavg = -2.8053e+01
  VMC Evar = 7.5876e-01
  Total weights = 2.5600e+05
  Execution time = 3.0590e-01
  </log>
</opt>
<opt stage="main" walkers="256000">
  <log>

*****************************************
Building overlap and Hamiltonian matrices
*****************************************

Among totally 30 optimized parameters, largest LM parameter change : 7.1403e-01 at parameter 20

******************************************************************************
Init Cost =   7.5876e-01    New Cost =   3.6566e-01  Delta Cost =  -3.9310e-01
******************************************************************************

The new set of parameters is valid. Updating the trial wave function!

*****************************************************************************
Applying the update for shift_i =   1.0000e-02     and shift_s =   2.5000e-01
*****************************************************************************
  Execution time = 2.7946e+00
  </log>
  <optVariables href="K.log.s001.opt.xml">
uu_0 1.8919e-01 1 1  ON 0
uu_1 2.2108e-03 1 1  ON 1
uu_2 -4.2284e-02 1 1  ON 2
uu_3 -4.2181e-02 1 1  ON 3
uu_4 -3.0439e-02 1 1  ON 4
uu_5 -2.2273e-02 1 1  ON 5
uu_6 -1.0938e-02 1 1  ON 6
uu_7 -1.3745e-02 1 1  ON 7
uu_8 -8.4721e-03 1 1  ON 8
uu_9 -1.1808e-02 1 1  ON 9
ud_0 2.5191e-01 1 1  ON 10
ud_1 -5.5513e-03 1 1  ON 11
ud_2 -4.7351e-02 1 1  ON 12
ud_3 -5.8202e-02 1 1  ON 13
ud_4 -3.8606e-02 1 1  ON 14
ud_5 -3.5413e-02 1 1  ON 15
ud_6 -1.6663e-02 1 1  ON 16
ud_7 -1.4561e-02 1 1  ON 17
ud_8 -1.1401e-02 1 1  ON 18
ud_9 -1.4620e-02 1 1  ON 19
eK_0 -7.1403e-01 1 1  ON 20
eK_1 -7.8557e-02 1 1  ON 21
eK_2 2.4316e-01 1 1  ON 22
eK_3 2.5193e-01 1 1  ON 23
eK_4 1.8267e-01 1 1  ON 24
eK_5 9.4807e-02 1 1  ON 25
eK_6 2.8402e-02 1 1  ON 26
eK_7 2.3793e-04 1 1  ON 27
eK_8 -2.7847e-03 1 1  ON 28
eK_9 -3.5624e-03 1 1  ON 29
  </optVariables>
   Restore the number of walkers to 1, removing 0 walkers.
</opt>
</optimization-report>
  QMC Execution time = 2.8044e+00 secs
  Reusing QMCFixedSampleLinearOptimize
 Using QMCCostFunction::QMCCostFunction

=========================================================
  Start QMCFixedSampleLinearOptimize
  File Root K.log.s002 append = no 
=========================================================
  Skip QMCDriver::putQMCInfo 
  Resetting Properties of the walkers 1 x 13

=========================================================
  Start VMC
  File Root K.log.s002 append = no 
=========================================================
Using existing walkers 
  Resetting Properties of the walkers 1 x 13

<vmc function="put">
  qmc_counter=1  my_counter=1
  time step      = 1.5000e-01
  blocks         = 200
  steps          = 2
  substeps       = 5
  current        = 0
  target samples = 2.5600e+05
  walkers/mpi    = 1

  stepsbetweensamples = 1
<parameter name="blocks" condition="int">200</parameter>
<parameter name="blocks_between_recompute" condition="int">0</parameter>
<parameter name="check_properties" condition="int">100</parameter>
<parameter name="checkproperties" condition="int">100</parameter>
<parameter name="current" condition="int">0</parameter>
<parameter name="dmcwalkersperthread" condition="real">2.5000e+02</parameter>
<parameter name="maxcpusecs" condition="real">3.6000e+05</parameter>
<parameter name="record_configs" condition="int">0</parameter>
<parameter name="record_walkers" condition="int">1</parameter>
<parameter name="recordconfigs" condition="int">0</parameter>
<parameter name="recordwalkers" condition="int">1</parameter>
<parameter name="rewind" condition="int">0</parameter>
<parameter name="samples" condition="real">2.5600e+05</parameter>
<parameter name="samplesperthread" condition="real">2.5000e+02</parameter>
<parameter name="steps" condition="int">2</parameter>
<parameter name="stepsbetweensamples" condition="int">1</parameter>
<parameter name="store_configs" condition="int">0</parameter>
<parameter name="storeconfigs" condition="int">0</parameter>
<parameter name="sub_steps" condition="int">5</parameter>
<parameter name="substeps" condition="int">5</parameter>
<parameter name="tau" condition="au">1.5000e-01</parameter>
<parameter name="time_step" condition="au">1.5000e-01</parameter>
<parameter name="timestep" condition="au">1.5000e-01</parameter>
<parameter name="use_drift" condition="string">no</parameter>
<parameter name="usedrift" condition="string">no</parameter>
<parameter name="walkers" condition="int">1</parameter>
<parameter name="warmup_steps" condition="int">0</parameter>
<parameter name="warmupsteps" condition="int">0</parameter>
  DumpConfig==false Nothing (configurations, state) will be saved.
  Walker Samples are dumped every 1 steps.
</vmc>
  EstimatorManagerBase::add replace LocalEnergy estimator.
  EstimatorManagerBase::add replace LocalEnergy estimator.
<optimization-report>
<vmc stage="main" blocks="200">
  Cannot make clones again. Use existing 1 clones
  Initial partition of walkers 0 1 
  Using Particle by Particle moves
  Walker moves without drift
  Total Sample Size   =256000
  Walker distribution on root = 0 1 
  Using Locality Approximation
===== Memory Usage after the buffer registration =====
Available memory on node 0, free + buffers : 84694 MB
Memory footprint by rank 0 on node 0       : 77 MB
==================================================
====================================================
  SimpleFixedNodeBranch::finalize after a VMC block
    QMC counter        = 2
    time step          = 0.15
    reference energy   = -28.1981
    reference variance = 0.314027
====================================================
  Execution time = 2.5779e+00
</vmc>
<opt stage="setup">
  <log>
   Reading configurations from h5FileRoot K.log.s002
  QMCCostFunction is created with 1 threads.
  Using Nonlocal PP in Opt: NonLocalECP
   Number of samples loaded to each thread : 250 
  VMC Eavg = -2.8179e+01
  VMC Evar = 3.2473e-01
  Total weights = 2.5600e+05
  Execution time = 7.9831e-01
  </log>
</opt>
<opt stage="main" walkers="256000">
  <log>

*****************************************
Building overlap and Hamiltonian matrices
*****************************************

Among totally 30 optimized parameters, largest LM parameter change : 4.4021e-01 at parameter 20

******************************************************************************
Init Cost =   3.2473e-01    New Cost =   3.4114e-01  Delta Cost =   1.6414e-02
******************************************************************************

The new set of parameters is valid. Updating the trial wave function!

*****************************************************************************
Applying the update for shift_i =   1.0000e-02     and shift_s =   6.2500e-02
*****************************************************************************
  Execution time = 4.3571e+00
  </log>
  <optVariables href="K.log.s002.opt.xml">
uu_0 2.8563e-01 1 1  ON 0
uu_1 2.2913e-02 1 1  ON 1
uu_2 -6.0238e-02 1 1  ON 2
uu_3 -7.0858e-02 1 1  ON 3
uu_4 -5.2923e-02 1 1  ON 4
uu_5 -4.1666e-02 1 1  ON 5
uu_6 -2.2831e-02 1 1  ON 6
uu_7 -1.8924e-02 1 1  ON 7
uu_8 -1.2391e-02 1 1  ON 8
uu_9 -1.4619e-02 1 1  ON 9
ud_0 3.6942e-01 1 1  ON 10
ud_1 1.7764e-02 1 1  ON 11
ud_2 -7.0427e-02 1 1  ON 12
ud_3 -9.6593e-02 1 1  ON 13
ud_4 -6.8218e-02 1 1  ON 14
ud_5 -5.1768e-02 1 1  ON 15
ud_6 -2.5340e-02 1 1  ON 16
ud_7 -2.2821e-02 1 1  ON 17
ud_8 -1.8368e-02 1 1  ON 18
ud_9 -1.8891e-02 1 1  ON 19
eK_0 -1.1542e+00 1 1  ON 20
eK_1 -2.2253e-01 1 1  ON 21
eK_2 3.6620e-01 1 1  ON 22
eK_3 4.4196e-01 1 1  ON 23
eK_4 3.4189e-01 1 1  ON 24
eK_5 1.7761e-01 1 1  ON 25
eK_6 5.4584e-02 1 1  ON 26
eK_7 6.9317e-03 1 1  ON 27
eK_8 -5.1601e-03 1 1  ON 28
eK_9 -3.6042e-03 1 1  ON 29
  </optVariables>
   Restore the number of walkers to 1, removing 0 walkers.
</opt>
</optimization-report>
  QMC Execution time = 4.3662e+00 secs
  Reusing QMCFixedSampleLinearOptimize
 Using QMCCostFunction::QMCCostFunction

=========================================================
  Start QMCFixedSampleLinearOptimize
  File Root K.log.s003 append = no 
=========================================================
  Skip QMCDriver::putQMCInfo 
  Resetting Properties of the walkers 1 x 13

=========================================================
  Start VMC
  File Root K.log.s003 append = no 
=========================================================
Using existing walkers 
  Resetting Properties of the walkers 1 x 13

<vmc function="put">
  qmc_counter=2  my_counter=2
  time step      = 1.5000e-01
  blocks         = 200
  steps          = 2
  substeps       = 5
  current        = 0
  target samples = 2.5600e+05
  walkers/mpi    = 1

  stepsbetweensamples = 1
<parameter name="blocks" condition="int">200</parameter>
<parameter name="blocks_between_recompute" condition="int">0</parameter>
<parameter name="check_properties" condition="int">100</parameter>
<parameter name="checkproperties" condition="int">100</parameter>
<parameter name="current" condition="int">0</parameter>
<parameter name="dmcwalkersperthread" condition="real">2.5000e+02</parameter>
<parameter name="maxcpusecs" condition="real">3.6000e+05</parameter>
<parameter name="record_configs" condition="int">0</parameter>
<parameter name="record_walkers" condition="int">1</parameter>
<parameter name="recordconfigs" condition="int">0</parameter>
<parameter name="recordwalkers" condition="int">1</parameter>
<parameter name="rewind" condition="int">0</parameter>
<parameter name="samples" condition="real">2.5600e+05</parameter>
<parameter name="samplesperthread" condition="real">2.5000e+02</parameter>
<parameter name="steps" condition="int">2</parameter>
<parameter name="stepsbetweensamples" condition="int">1</parameter>
<parameter name="store_configs" condition="int">0</parameter>
<parameter name="storeconfigs" condition="int">0</parameter>
<parameter name="sub_steps" condition="int">5</parameter>
<parameter name="substeps" condition="int">5</parameter>
<parameter name="tau" condition="au">1.5000e-01</parameter>
<parameter name="time_step" condition="au">1.5000e-01</parameter>
<parameter name="timestep" condition="au">1.5000e-01</parameter>
<parameter name="use_drift" condition="string">no</parameter>
<parameter name="usedrift" condition="string">no</parameter>
<parameter name="walkers" condition="int">1</parameter>
<parameter name="warmup_steps" condition="int">0</parameter>
<parameter name="warmupsteps" condition="int">0</parameter>
  DumpConfig==false Nothing (configurations, state) will be saved.
  Walker Samples are dumped every 1 steps.
</vmc>
  EstimatorManagerBase::add replace LocalEnergy estimator.
  EstimatorManagerBase::add replace LocalEnergy estimator.
<optimization-report>
<vmc stage="main" blocks="200">
  Cannot make clones again. Use existing 1 clones
  Initial partition of walkers 0 1 
  Using Particle by Particle moves
  Walker moves without drift
  Total Sample Size   =256000
  Walker distribution on root = 0 1 
  Using Locality Approximation
===== Memory Usage after the buffer registration =====
Available memory on node 0, free + buffers : 84693 MB
Memory footprint by rank 0 on node 0       : 78 MB
==================================================
====================================================
  SimpleFixedNodeBranch::finalize after a VMC block
    QMC counter        = 3
    time step          = 0.15
    reference energy   = -28.2004
    reference variance = 0.280786
====================================================
  Execution time = 2.6296e+00
</vmc>
<opt stage="setup">
  <log>
   Reading configurations from h5FileRoot K.log.s003
  QMCCostFunction is created with 1 threads.
  Using Nonlocal PP in Opt: NonLocalECP
   Number of samples loaded to each thread : 250 
  VMC Eavg = -2.8201e+01
  VMC Evar = 3.3068e-01
  Total weights = 2.5600e+05
  Execution time = 1.0413e+00
  </log>
</opt>
<opt stage="main" walkers="256000">
  <log>

*****************************************
Building overlap and Hamiltonian matrices
*****************************************

Among totally 30 optimized parameters, largest LM parameter change : 2.3020e-01 at parameter 20

******************************************************************************
Init Cost =   3.3068e-01    New Cost =   3.5145e-01  Delta Cost =   2.0771e-02
******************************************************************************

The new set of parameters is valid. Updating the trial wave function!

*****************************************************************************
Applying the update for shift_i =   1.0000e-02     and shift_s =   1.5625e-02
*****************************************************************************
  Execution time = 4.7267e+00
  </log>
  <optVariables href="K.log.s003.opt.xml">
uu_0 3.2442e-01 1 1  ON 0
uu_1 3.7450e-02 1 1  ON 1
uu_2 -6.3864e-02 1 1  ON 2
uu_3 -8.8680e-02 1 1  ON 3
uu_4 -7.1150e-02 1 1  ON 4
uu_5 -5.5134e-02 1 1  ON 5
uu_6 -2.7883e-02 1 1  ON 6
uu_7 -1.6644e-02 1 1  ON 7
uu_8 -1.2638e-02 1 1  ON 8
uu_9 -1.6953e-02 1 1  ON 9
ud_0 4.1383e-01 1 1  ON 10
ud_1 4.0857e-02 1 1  ON 11
ud_2 -6.7559e-02 1 1  ON 12
ud_3 -1.1263e-01 1 1  ON 13
ud_4 -8.7465e-02 1 1  ON 14
ud_5 -7.2200e-02 1 1  ON 15
ud_6 -3.2910e-02 1 1  ON 16
ud_7 -2.6784e-02 1 1  ON 17
ud_8 -2.1100e-02 1 1  ON 18
ud_9 -2.3121e-02 1 1  ON 19
eK_0 -1.3844e+00 1 1  ON 20
eK_1 -3.5787e-01 1 1  ON 21
eK_2 3.5649e-01 1 1  ON 22
eK_3 5.5889e-01 1 1  ON 23
eK_4 4.6259e-01 1 1  ON 24
eK_5 2.7365e-01 1 1  ON 25
eK_6 9.1749e-02 1 1  ON 26
eK_7 1.1237e-02 1 1  ON 27
eK_8 -5.7653e-03 1 1  ON 28
eK_9 -3.9058e-03 1 1  ON 29
  </optVariables>
   Restore the number of walkers to 1, removing 0 walkers.
</opt>
</optimization-report>
  QMC Execution time = 4.7350e+00 secs
  Reusing QMCFixedSampleLinearOptimize
 Using QMCCostFunction::QMCCostFunction

=========================================================
  Start QMCFixedSampleLinearOptimize
  File Root K.log.s004 append = no 
=========================================================
  Skip QMCDriver::putQMCInfo 
  Resetting Properties of the walkers 1 x 13

=========================================================
  Start VMC
  File Root K.log.s004 append = no 
=========================================================
Using existing walkers 
  Resetting Properties of the walkers 1 x 13

<vmc function="put">
  qmc_counter=3  my_counter=3
  time step      = 1.5000e-01
  blocks         = 200
  steps          = 2
  substeps       = 5
  current        = 0
  target samples = 2.5600e+05
  walkers/mpi    = 1

  stepsbetweensamples = 1
<parameter name="blocks" condition="int">200</parameter>
<parameter name="blocks_between_recompute" condition="int">0</parameter>
<parameter name="check_properties" condition="int">100</parameter>
<parameter name="checkproperties" condition="int">100</parameter>
<parameter name="current" condition="int">0</parameter>
<parameter name="dmcwalkersperthread" condition="real">2.5000e+02</parameter>
<parameter name="maxcpusecs" condition="real">3.6000e+05</parameter>
<parameter name="record_configs" condition="int">0</parameter>
<parameter name="record_walkers" condition="int">1</parameter>
<parameter name="recordconfigs" condition="int">0</parameter>
<parameter name="recordwalkers" condition="int">1</parameter>
<parameter name="rewind" condition="int">0</parameter>
<parameter name="samples" condition="real">2.5600e+05</parameter>
<parameter name="samplesperthread" condition="real">2.5000e+02</parameter>
<parameter name="steps" condition="int">2</parameter>
<parameter name="stepsbetweensamples" condition="int">1</parameter>
<parameter name="store_configs" condition="int">0</parameter>
<parameter name="storeconfigs" condition="int">0</parameter>
<parameter name="sub_steps" condition="int">5</parameter>
<parameter name="substeps" condition="int">5</parameter>
<parameter name="tau" condition="au">1.5000e-01</parameter>
<parameter name="time_step" condition="au">1.5000e-01</parameter>
<parameter name="timestep" condition="au">1.5000e-01</parameter>
<parameter name="use_drift" condition="string">no</parameter>
<parameter name="usedrift" condition="string">no</parameter>
<parameter name="walkers" condition="int">1</parameter>
<parameter name="warmup_steps" condition="int">0</parameter>
<parameter name="warmupsteps" condition="int">0</parameter>
  DumpConfig==false Nothing (configurations, state) will be saved.
  Walker Samples are dumped every 1 steps.
</vmc>
  EstimatorManagerBase::add replace LocalEnergy estimator.
  EstimatorManagerBase::add replace LocalEnergy estimator.
<optimization-report>
<vmc stage="main" blocks="200">
  Cannot make clones again. Use existing 1 clones
  Initial partition of walkers 0 1 
  Using Particle by Particle moves
  Walker moves without drift
  Total Sample Size   =256000
  Walker distribution on root = 0 1 
  Using Locality Approximation
===== Memory Usage after the buffer registration =====
Available memory on node 0, free + buffers : 84691 MB
Memory footprint by rank 0 on node 0       : 80 MB
==================================================
====================================================
  SimpleFixedNodeBranch::finalize after a VMC block
    QMC counter        = 4
    time step          = 0.15
    reference energy   = -28.2313
    reference variance = 0.306569
====================================================
  Execution time = 2.6273e+00
</vmc>
<opt stage="setup">
  <log>
   Reading configurations from h5FileRoot K.log.s004
  QMCCostFunction is created with 1 threads.
  Using Nonlocal PP in Opt: NonLocalECP
   Number of samples loaded to each thread : 250 
  VMC Eavg = -2.8205e+01
  VMC Evar = 3.5027e-01
  Total weights = 2.5600e+05
  Execution time = 1.0428e+00
  </log>
</opt>
<opt stage="main" walkers="256000">
  <log>

*****************************************
Building overlap and Hamiltonian matrices
*****************************************

Among totally 30 optimized parameters, largest LM parameter change : 1.3628e-01 at parameter 20

******************************************************************************
Init Cost =   3.5027e-01    New Cost =   3.5783e-01  Delta Cost =   7.5641e-03
******************************************************************************

The new set of parameters is valid. Updating the trial wave function!

*****************************************************************************
Applying the update for shift_i =   1.0000e-02     and shift_s =   3.9062e-03
*****************************************************************************
  Execution time = 4.5875e+00
  </log>
  <optVariables href="K.log.s004.opt.xml">
uu_0 3.3933e-01 1 1  ON 0
uu_1 4.5853e-02 1 1  ON 1
uu_2 -6.2855e-02 1 1  ON 2
uu_3 -9.9490e-02 1 1  ON 3
uu_4 -8.6489e-02 1 1  ON 4
uu_5 -6.5054e-02 1 1  ON 5
uu_6 -2.9181e-02 1 1  ON 6
uu_7 -1.2231e-02 1 1  ON 7
uu_8 -8.6852e-03 1 1  ON 8
uu_9 -1.3640e-02 1 1  ON 9
ud_0 4.2903e-01 1 1  ON 10
ud_1 4.9472e-02 1 1  ON 11
ud_2 -6.4707e-02 1 1  ON 12
ud_3 -1.1931e-01 1 1  ON 13
ud_4 -1.0204e-01 1 1  ON 14
ud_5 -8.1956e-02 1 1  ON 15
ud_6 -3.7817e-02 1 1  ON 16
ud_7 -2.7201e-02 1 1  ON 17
ud_8 -1.8080e-02 1 1  ON 18
ud_9 -1.3725e-02 1 1  ON 19
eK_0 -1.5207e+00 1 1  ON 20
eK_1 -4.6455e-01 1 1  ON 21
eK_2 3.0048e-01 1 1  ON 22
eK_3 6.0537e-01 1 1  ON 23
eK_4 5.7037e-01 1 1  ON 24
eK_5 3.6364e-01 1 1  ON 25
eK_6 1.3240e-01 1 1  ON 26
eK_7 2.1919e-02 1 1  ON 27
eK_8 -3.6377e-03 1 1  ON 28
eK_9 -1.9660e-03 1 1  ON 29
  </optVariables>
   Restore the number of walkers to 1, removing 0 walkers.
</opt>
</optimization-report>
  QMC Execution time = 4.5958e+00 secs
  Reusing QMCFixedSampleLinearOptimize
 Using QMCCostFunction::QMCCostFunction

=========================================================
  Start QMCFixedSampleLinearOptimize
  File Root K.log.s005 append = no 
=========================================================
  Skip QMCDriver::putQMCInfo 
  Resetting Properties of the walkers 1 x 13

=========================================================
  Start VMC
  File Root K.log.s005 append = no 
=========================================================
Using existing walkers 
  Resetting Properties of the walkers 1 x 13

<vmc function="put">
  qmc_counter=4  my_counter=4
  time step      = 1.5000e-01
  blocks         = 200
  steps          = 2
  substeps       = 5
  current        = 0
  target samples = 2.5600e+05
  walkers/mpi    = 1

  stepsbetweensamples = 1
<parameter name="blocks" condition="int">200</parameter>
<parameter name="blocks_between_recompute" condition="int">0</parameter>
<parameter name="check_properties" condition="int">100</parameter>
<parameter name="checkproperties" condition="int">100</parameter>
<parameter name="current" condition="int">0</parameter>
<parameter name="dmcwalkersperthread" condition="real">2.5000e+02</parameter>
<parameter name="maxcpusecs" condition="real">3.6000e+05</parameter>
<parameter name="record_configs" condition="int">0</parameter>
<parameter name="record_walkers" condition="int">1</parameter>
<parameter name="recordconfigs" condition="int">0</parameter>
<parameter name="recordwalkers" condition="int">1</parameter>
<parameter name="rewind" condition="int">0</parameter>
<parameter name="samples" condition="real">2.5600e+05</parameter>
<parameter name="samplesperthread" condition="real">2.5000e+02</parameter>
<parameter name="steps" condition="int">2</parameter>
<parameter name="stepsbetweensamples" condition="int">1</parameter>
<parameter name="store_configs" condition="int">0</parameter>
<parameter name="storeconfigs" condition="int">0</parameter>
<parameter name="sub_steps" condition="int">5</parameter>
<parameter name="substeps" condition="int">5</parameter>
<parameter name="tau" condition="au">1.5000e-01</parameter>
<parameter name="time_step" condition="au">1.5000e-01</parameter>
<parameter name="timestep" condition="au">1.5000e-01</parameter>
<parameter name="use_drift" condition="string">no</parameter>
<parameter name="usedrift" condition="string">no</parameter>
<parameter name="walkers" condition="int">1</parameter>
<parameter name="warmup_steps" condition="int">0</parameter>
<parameter name="warmupsteps" condition="int">0</parameter>
  DumpConfig==false Nothing (configurations, state) will be saved.
  Walker Samples are dumped every 1 steps.
</vmc>
  EstimatorManagerBase::add replace LocalEnergy estimator.
  EstimatorManagerBase::add replace LocalEnergy estimator.
<optimization-report>
<vmc stage="main" blocks="200">
  Cannot make clones again. Use existing 1 clones
  Initial partition of walkers 0 1 
  Using Particle by Particle moves
  Walker moves without drift
  Total Sample Size   =256000
  Walker distribution on root = 0 1 
  Using Locality Approximation
===== Memory Usage after the buffer registration =====
Available memory on node 0, free + buffers : 84689 MB
Memory footprint by rank 0 on node 0       : 82 MB
==================================================
====================================================
  SimpleFixedNodeBranch::finalize after a VMC block
    QMC counter        = 5
    time step          = 0.15
    reference energy   = -28.1603
    reference variance = 0.38261
====================================================
  Execution time = 2.4899e+00
</vmc>
<opt stage="setup">
  <log>
   Reading configurations from h5FileRoot K.log.s005
  QMCCostFunction is created with 1 threads.
  Using Nonlocal PP in Opt: NonLocalECP
   Number of samples loaded to each thread : 250 
  VMC Eavg = -2.8205e+01
  VMC Evar = 3.5253e-01
  Total weights = 2.5600e+05
  Execution time = 9.5832e-01
  </log>
</opt>
<opt stage="main" walkers="256000">
  <log>

*****************************************
Building overlap and Hamiltonian matrices
*****************************************

Among totally 30 optimized parameters, largest LM parameter change : 9.4407e-02 at parameter 20

******************************************************************************
Init Cost =   3.5253e-01    New Cost =   3.5646e-01  Delta Cost =   3.9304e-03
******************************************************************************

The new set of parameters is valid. Updating the trial wave function!

*****************************************************************************
Applying the update for shift_i =   1.0000e-02     and shift_s =   3.9062e-03
*****************************************************************************
  Execution time = 4.3138e+00
  </log>
  <optVariables href="K.log.s005.opt.xml">
uu_0 3.5512e-01 1 1  ON 0
uu_1 5.8554e-02 1 1  ON 1
uu_2 -5.1390e-02 1 1  ON 2
uu_3 -9.7809e-02 1 1  ON 3
uu_4 -9.4509e-02 1 1  ON 4
uu_5 -7.3362e-02 1 1  ON 5
uu_6 -3.3483e-02 1 1  ON 6
uu_7 -1.5491e-02 1 1  ON 7
uu_8 -1.0070e-02 1 1  ON 8
uu_9 -2.0637e-02 1 1  ON 9
ud_0 4.4471e-01 1 1  ON 10
ud_1 6.1341e-02 1 1  ON 11
ud_2 -5.7302e-02 1 1  ON 12
ud_3 -1.1963e-01 1 1  ON 13
ud_4 -1.0584e-01 1 1  ON 14
ud_5 -8.4202e-02 1 1  ON 15
ud_6 -4.1520e-02 1 1  ON 16
ud_7 -3.0898e-02 1 1  ON 17
ud_8 -2.0604e-02 1 1  ON 18
ud_9 -2.4366e-02 1 1  ON 19
eK_0 -1.6151e+00 1 1  ON 20
eK_1 -5.4566e-01 1 1  ON 21
eK_2 2.4914e-01 1 1  ON 22
eK_3 6.2074e-01 1 1  ON 23
eK_4 6.4187e-01 1 1  ON 24
eK_5 4.5394e-01 1 1  ON 25
eK_6 1.7720e-01 1 1  ON 26
eK_7 3.1090e-02 1 1  ON 27
eK_8 -2.9375e-03 1 1  ON 28
eK_9 -5.0420e-03 1 1  ON 29
  </optVariables>
   Restore the number of walkers to 1, removing 0 walkers.
</opt>
</optimization-report>
  QMC Execution time = 4.3215e+00 secs
Loop execution max-interations = 5
  Reusing QMCFixedSampleLinearOptimize
 Using QMCCostFunction::QMCCostFunction

=========================================================
  Start QMCFixedSampleLinearOptimize
  File Root K.log.s006 append = no 
=========================================================
  Skip QMCDriver::putQMCInfo 
  Resetting Properties of the walkers 1 x 13

=========================================================
  Start VMC
  File Root K.log.s006 append = no 
=========================================================
  Using the current 1 walkers.
  Total number of walkers: 1.0240e+03
  Total weight: 1.0240e+03
  Resetting Properties of the walkers 1 x 13

<vmc function="put">
  qmc_counter=0  my_counter=5
  time step      = 1.5000e-01
  blocks         = 200
  steps          = 2
  substeps       = 5
  current        = 0
  target samples = 2.5600e+05
  walkers/mpi    = 1

  stepsbetweensamples = 1
<parameter name="blocks" condition="int">200</parameter>
<parameter name="blocks_between_recompute" condition="int">0</parameter>
<parameter name="check_properties" condition="int">100</parameter>
<parameter name="checkproperties" condition="int">100</parameter>
<parameter name="current" condition="int">0</parameter>
<parameter name="dmcwalkersperthread" condition="real">2.5000e+02</parameter>
<parameter name="maxcpusecs" condition="real">3.6000e+05</parameter>
<parameter name="record_configs" condition="int">0</parameter>
<parameter name="record_walkers" condition="int">1</parameter>
<parameter name="recordconfigs" condition="int">0</parameter>
<parameter name="recordwalkers" condition="int">1</parameter>
<parameter name="rewind" condition="int">0</parameter>
<parameter name="samples" condition="real">2.5600e+05</parameter>
<parameter name="samplesperthread" condition="real">2.5000e+02</parameter>
<parameter name="steps" condition="int">2</parameter>
<parameter name="stepsbetweensamples" condition="int">1</parameter>
<parameter name="store_configs" condition="int">0</parameter>
<parameter name="storeconfigs" condition="int">0</parameter>
<parameter name="sub_steps" condition="int">5</parameter>
<parameter name="substeps" condition="int">5</parameter>
<parameter name="tau" condition="au">1.5000e-01</parameter>
<parameter name="time_step" condition="au">1.5000e-01</parameter>
<parameter name="timestep" condition="au">1.5000e-01</parameter>
<parameter name="use_drift" condition="string">no</parameter>
<parameter name="usedrift" condition="string">no</parameter>
<parameter name="walkers" condition="int">1</parameter>
<parameter name="warmup_steps" condition="int">0</parameter>
<parameter name="warmupsteps" condition="int">0</parameter>
  DumpConfig==false Nothing (configurations, state) will be saved.
  Walker Samples are dumped every 1 steps.
</vmc>
  EstimatorManagerBase::add replace LocalEnergy estimator.
  EstimatorManagerBase::add replace LocalEnergy estimator.
<optimization-report>
<vmc stage="main" blocks="200">
  Cannot make clones again. Use existing 1 clones
  Initial partition of walkers 0 1 
  Using Particle by Particle moves
  Walker moves without drift
  Total Sample Size   =256000
  Walker distribution on root = 0 1 
  Using Locality Approximation
===== Memory Usage after the buffer registration =====
Available memory on node 0, free + buffers : 84687 MB
Memory footprint by rank 0 on node 0       : 83 MB
==================================================
====================================================
  SimpleFixedNodeBranch::finalize after a VMC block
    QMC counter        = 6
    time step          = 0.15
    reference energy   = -28.2212
    reference variance = 0.353828
====================================================
  Execution time = 2.3680e+00
</vmc>
<opt stage="setup">
  <log>
   Reading configurations from h5FileRoot K.log.s006
  QMCCostFunction is created with 1 threads.
  Using Nonlocal PP in Opt: NonLocalECP
   Number of samples loaded to each thread : 250 
  VMC Eavg = -2.8206e+01
  VMC Evar = 3.6370e-01
  Total weights = 2.5600e+05
  Execution time = 8.7186e-01
  </log>
</opt>
<opt stage="main" walkers="256000">
  <log>

*****************************************
Building overlap and Hamiltonian matrices
*****************************************

Among totally 30 optimized parameters, largest LM parameter change : 7.3589e-02 at parameter 25

******************************************************************************
Init Cost =   3.6370e-01    New Cost =   3.6418e-01  Delta Cost =   4.7510e-04
******************************************************************************

The new set of parameters is valid. Updating the trial wave function!

*****************************************************************************
Applying the update for shift_i =   1.0000e-02     and shift_s =   3.9062e-03
*****************************************************************************
  Execution time = 4.0122e+00
  </log>
  <optVariables href="K.log.s006.opt.xml">
uu_0 3.7021e-01 1 1  ON 0
uu_1 7.1896e-02 1 1  ON 1
uu_2 -4.0179e-02 1 1  ON 2
uu_3 -9.3169e-02 1 1  ON 3
uu_4 -9.7455e-02 1 1  ON 4
uu_5 -8.1257e-02 1 1  ON 5
uu_6 -4.4660e-02 1 1  ON 6
uu_7 -1.4786e-02 1 1  ON 7
uu_8 -1.0625e-02 1 1  ON 8
uu_9 -3.4251e-02 1 1  ON 9
ud_0 4.5795e-01 1 1  ON 10
ud_1 7.4887e-02 1 1  ON 11
ud_2 -4.5764e-02 1 1  ON 12
ud_3 -1.1112e-01 1 1  ON 13
ud_4 -1.1171e-01 1 1  ON 14
ud_5 -9.4695e-02 1 1  ON 15
ud_6 -5.4058e-02 1 1  ON 16
ud_7 -2.6049e-02 1 1  ON 17
ud_8 -2.5959e-02 1 1  ON 18
ud_9 -3.4303e-02 1 1  ON 19
eK_0 -1.6834e+00 1 1  ON 20
eK_1 -6.0627e-01 1 1  ON 21
eK_2 2.0632e-01 1 1  ON 22
eK_3 6.1650e-01 1 1  ON 23
eK_4 6.9653e-01 1 1  ON 24
eK_5 5.2753e-01 1 1  ON 25
eK_6 2.1881e-01 1 1  ON 26
eK_7 4.3856e-02 1 1  ON 27
eK_8 -4.3458e-03 1 1  ON 28
eK_9 -8.8884e-03 1 1  ON 29
  </optVariables>
   Restore the number of walkers to 1, removing 0 walkers.
</opt>
</optimization-report>
  QMC Execution time = 4.0208e+00 secs
  Reusing QMCFixedSampleLinearOptimize
 Using QMCCostFunction::QMCCostFunction

=========================================================
  Start QMCFixedSampleLinearOptimize
  File Root K.log.s007 append = no 
=========================================================
  Skip QMCDriver::putQMCInfo 
  Resetting Properties of the walkers 1 x 13

=========================================================
  Start VMC
  File Root K.log.s007 append = no 
=========================================================
Using existing walkers 
  Resetting Properties of the walkers 1 x 13

<vmc function="put">
  qmc_counter=1  my_counter=6
  time step      = 1.5000e-01
  blocks         = 200
  steps          = 2
  substeps       = 5
  current        = 0
  target samples = 2.5600e+05
  walkers/mpi    = 1

  stepsbetweensamples = 1
<parameter name="blocks" condition="int">200</parameter>
<parameter name="blocks_between_recompute" condition="int">0</parameter>
<parameter name="check_properties" condition="int">100</parameter>
<parameter name="checkproperties" condition="int">100</parameter>
<parameter name="current" condition="int">0</parameter>
<parameter name="dmcwalkersperthread" condition="real">2.5000e+02</parameter>
<parameter name="maxcpusecs" condition="real">3.6000e+05</parameter>
<parameter name="record_configs" condition="int">0</parameter>
<parameter name="record_walkers" condition="int">1</parameter>
<parameter name="recordconfigs" condition="int">0</parameter>
<parameter name="recordwalkers" condition="int">1</parameter>
<parameter name="rewind" condition="int">0</parameter>
<parameter name="samples" condition="real">2.5600e+05</parameter>
<parameter name="samplesperthread" condition="real">2.5000e+02</parameter>
<parameter name="steps" condition="int">2</parameter>
<parameter name="stepsbetweensamples" condition="int">1</parameter>
<parameter name="store_configs" condition="int">0</parameter>
<parameter name="storeconfigs" condition="int">0</parameter>
<parameter name="sub_steps" condition="int">5</parameter>
<parameter name="substeps" condition="int">5</parameter>
<parameter name="tau" condition="au">1.5000e-01</parameter>
<parameter name="time_step" condition="au">1.5000e-01</parameter>
<parameter name="timestep" condition="au">1.5000e-01</parameter>
<parameter name="use_drift" condition="string">no</parameter>
<parameter name="usedrift" condition="string">no</parameter>
<parameter name="walkers" condition="int">1</parameter>
<parameter name="warmup_steps" condition="int">0</parameter>
<parameter name="warmupsteps" condition="int">0</parameter>
  DumpConfig==false Nothing (configurations, state) will be saved.
  Walker Samples are dumped every 1 steps.
</vmc>
  EstimatorManagerBase::add replace LocalEnergy estimator.
  EstimatorManagerBase::add replace LocalEnergy estimator.
<optimization-report>
<vmc stage="main" blocks="200">
  Cannot make clones again. Use existing 1 clones
  Initial partition of walkers 0 1 
  Using Particle by Particle moves
  Walker moves without drift
  Total Sample Size   =256000
  Walker distribution on root = 0 1 
  Using Locality Approximation
===== Memory Usage after the buffer registration =====
Available memory on node 0, free + buffers : 84685 MB
Memory footprint by rank 0 on node 0       : 85 MB
==================================================
====================================================
  SimpleFixedNodeBranch::finalize after a VMC block
    QMC counter        = 7
    time step          = 0.15
    reference energy   = -28.1973
    reference variance = 0.36447
====================================================
  Execution time = 2.3088e+00
</vmc>
<opt stage="setup">
  <log>
   Reading configurations from h5FileRoot K.log.s007
  QMCCostFunction is created with 1 threads.
  Using Nonlocal PP in Opt: NonLocalECP
   Number of samples loaded to each thread : 250 
  VMC Eavg = -2.8207e+01
  VMC Evar = 3.5328e-01
  Total weights = 2.5600e+05
  Execution time = 8.1352e-01
  </log>
</opt>
<opt stage="main" walkers="256000">
  <log>

*****************************************
Building overlap and Hamiltonian matrices
*****************************************

Among totally 30 optimized parameters, largest LM parameter change : 6.6296e-02 at parameter 25

******************************************************************************
Init Cost =   3.5328e-01    New Cost =   3.5466e-01  Delta Cost =   1.3822e-03
******************************************************************************

The new set of parameters is valid. Updating the trial wave function!

*****************************************************************************
Applying the update for shift_i =   1.0000e-02     and shift_s =   3.9062e-03
*****************************************************************************
  Execution time = 3.8466e+00
  </log>
  <optVariables href="K.log.s007.opt.xml">
uu_0 3.7026e-01 1 1  ON 0
uu_1 7.0554e-02 1 1  ON 1
uu_2 -4.3428e-02 1 1  ON 2
uu_3 -9.8273e-02 1 1  ON 3
uu_4 -1.0503e-01 1 1  ON 4
uu_5 -8.5925e-02 1 1  ON 5
uu_6 -4.7204e-02 1 1  ON 6
uu_7 -1.2991e-02 1 1  ON 7
uu_8 1.6706e-03 1 1  ON 8
uu_9 -2.6757e-02 1 1  ON 9
ud_0 4.5894e-01 1 1  ON 10
ud_1 7.5820e-02 1 1  ON 11
ud_2 -4.6898e-02 1 1  ON 12
ud_3 -1.1640e-01 1 1  ON 13
ud_4 -1.1800e-01 1 1  ON 14
ud_5 -1.0151e-01 1 1  ON 15
ud_6 -5.5686e-02 1 1  ON 16
ud_7 -2.7476e-02 1 1  ON 17
ud_8 -1.3904e-02 1 1  ON 18
ud_9 -2.6673e-02 1 1  ON 19
eK_0 -1.7456e+00 1 1  ON 20
eK_1 -6.6165e-01 1 1  ON 21
eK_2 1.5955e-01 1 1  ON 22
eK_3 6.1182e-01 1 1  ON 23
eK_4 7.3098e-01 1 1  ON 24
eK_5 5.9383e-01 1 1  ON 25
eK_6 2.6836e-01 1 1  ON 26
eK_7 5.6444e-02 1 1  ON 27
eK_8 1.2099e-03 1 1  ON 28
eK_9 -8.2019e-03 1 1  ON 29
  </optVariables>
   Restore the number of walkers to 1, removing 0 walkers.
</opt>
</optimization-report>
  QMC Execution time = 3.8549e+00 secs
  Reusing QMCFixedSampleLinearOptimize
 Using QMCCostFunction::QMCCostFunction

=========================================================
  Start QMCFixedSampleLinearOptimize
  File Root K.log.s008 append = no 
=========================================================
  Skip QMCDriver::putQMCInfo 
  Resetting Properties of the walkers 1 x 13

=========================================================
  Start VMC
  File Root K.log.s008 append = no 
=========================================================
Using existing walkers 
  Resetting Properties of the walkers 1 x 13

<vmc function="put">
  qmc_counter=2  my_counter=7
  time step      = 1.5000e-01
  blocks         = 200
  steps          = 2
  substeps       = 5
  current        = 0
  target samples = 2.5600e+05
  walkers/mpi    = 1

  stepsbetweensamples = 1
<parameter name="blocks" condition="int">200</parameter>
<parameter name="blocks_between_recompute" condition="int">0</parameter>
<parameter name="check_properties" condition="int">100</parameter>
<parameter name="checkproperties" condition="int">100</parameter>
<parameter name="current" condition="int">0</parameter>
<parameter name="dmcwalkersperthread" condition="real">2.5000e+02</parameter>
<parameter name="maxcpusecs" condition="real">3.6000e+05</parameter>
<parameter name="record_configs" condition="int">0</parameter>
<parameter name="record_walkers" condition="int">1</parameter>
<parameter name="recordconfigs" condition="int">0</parameter>
<parameter name="recordwalkers" condition="int">1</parameter>
<parameter name="rewind" condition="int">0</parameter>
<parameter name="samples" condition="real">2.5600e+05</parameter>
<parameter name="samplesperthread" condition="real">2.5000e+02</parameter>
<parameter name="steps" condition="int">2</parameter>
<parameter name="stepsbetweensamples" condition="int">1</parameter>
<parameter name="store_configs" condition="int">0</parameter>
<parameter name="storeconfigs" condition="int">0</parameter>
<parameter name="sub_steps" condition="int">5</parameter>
<parameter name="substeps" condition="int">5</parameter>
<parameter name="tau" condition="au">1.5000e-01</parameter>
<parameter name="time_step" condition="au">1.5000e-01</parameter>
<parameter name="timestep" condition="au">1.5000e-01</parameter>
<parameter name="use_drift" condition="string">no</parameter>
<parameter name="usedrift" condition="string">no</parameter>
<parameter name="walkers" condition="int">1</parameter>
<parameter name="warmup_steps" condition="int">0</parameter>
<parameter name="warmupsteps" condition="int">0</parameter>
  DumpConfig==false Nothing (configurations, state) will be saved.
  Walker Samples are dumped every 1 steps.
</vmc>
  EstimatorManagerBase::add replace LocalEnergy estimator.
  EstimatorManagerBase::add replace LocalEnergy estimator.
<optimization-report>
<vmc stage="main" blocks="200">
  Cannot make clones again. Use existing 1 clones
  Initial partition of walkers 0 1 
  Using Particle by Particle moves
  Walker moves without drift
  Total Sample Size   =256000
  Walker distribution on root = 0 1 
  Using Locality Approximation
===== Memory Usage after the buffer registration =====
Available memory on node 0, free + buffers : 84683 MB
Memory footprint by rank 0 on node 0       : 87 MB
==================================================
====================================================
  SimpleFixedNodeBranch::finalize after a VMC block
    QMC counter        = 8
    time step          = 0.15
    reference energy   = -28.206
    reference variance = 0.347596
====================================================
  Execution time = 2.2342e+00
</vmc>
<opt stage="setup">
  <log>
   Reading configurations from h5FileRoot K.log.s008
  QMCCostFunction is created with 1 threads.
  Using Nonlocal PP in Opt: NonLocalECP
   Number of samples loaded to each thread : 250 
  VMC Eavg = -2.8207e+01
  VMC Evar = 3.7049e-01
  Total weights = 2.5600e+05
  Execution time = 7.2202e-01
  </log>
</opt>
<opt stage="main" walkers="256000">
  <log>

*****************************************
Building overlap and Hamiltonian matrices
*****************************************

Among totally 30 optimized parameters, largest LM parameter change : 4.9322e-02 at parameter 26

******************************************************************************
Init Cost =   3.7049e-01    New Cost =   3.7212e-01  Delta Cost =   1.6351e-03
******************************************************************************

The new set of parameters is valid. Updating the trial wave function!

*****************************************************************************
Applying the update for shift_i =   1.0000e-02     and shift_s =   3.9062e-03
*****************************************************************************
  Execution time = 3.5794e+00
  </log>
  <optVariables href="K.log.s008.opt.xml">
uu_0 3.7980e-01 1 1  ON 0
uu_1 7.8509e-02 1 1  ON 1
uu_2 -3.6333e-02 1 1  ON 2
uu_3 -9.3856e-02 1 1  ON 3
uu_4 -1.0954e-01 1 1  ON 4
uu_5 -1.0153e-01 1 1  ON 5
uu_6 -4.9682e-02 1 1  ON 6
uu_7 -1.3531e-02 1 1  ON 7
uu_8 -2.7246e-03 1 1  ON 8
uu_9 -2.9668e-02 1 1  ON 9
ud_0 4.6993e-01 1 1  ON 10
ud_1 8.5604e-02 1 1  ON 11
ud_2 -3.9454e-02 1 1  ON 12
ud_3 -1.1512e-01 1 1  ON 13
ud_4 -1.1874e-01 1 1  ON 14
ud_5 -1.1165e-01 1 1  ON 15
ud_6 -6.4671e-02 1 1  ON 16
ud_7 -3.2177e-02 1 1  ON 17
ud_8 -2.3680e-02 1 1  ON 18
ud_9 -2.4739e-02 1 1  ON 19
eK_0 -1.7940e+00 1 1  ON 20
eK_1 -7.0313e-01 1 1  ON 21
eK_2 1.3527e-01 1 1  ON 22
eK_3 6.0787e-01 1 1  ON 23
eK_4 7.4132e-01 1 1  ON 24
eK_5 6.4066e-01 1 1  ON 25
eK_6 3.1768e-01 1 1  ON 26
eK_7 6.8789e-02 1 1  ON 27
eK_8 -5.8835e-04 1 1  ON 28
eK_9 -7.4888e-03 1 1  ON 29
  </optVariables>
   Restore the number of walkers to 1, removing 0 walkers.
</opt>
</optimization-report>
  QMC Execution time = 3.5874e+00 secs
  Reusing QMCFixedSampleLinearOptimize
 Using QMCCostFunction::QMCCostFunction

=========================================================
  Start QMCFixedSampleLinearOptimize
  File Root K.log.s009 append = no 
=========================================================
  Skip QMCDriver::putQMCInfo 
  Resetting Properties of the walkers 1 x 13

=========================================================
  Start VMC
  File Root K.log.s009 append = no 
=========================================================
Using existing walkers 
  Resetting Properties of the walkers 1 x 13

<vmc function="put">
  qmc_counter=3  my_counter=8
  time step      = 1.5000e-01
  blocks         = 200
  steps          = 2
  substeps       = 5
  current        = 0
  target samples = 2.5600e+05
  walkers/mpi    = 1

  stepsbetweensamples = 1
<parameter name="blocks" condition="int">200</parameter>
<parameter name="blocks_between_recompute" condition="int">0</parameter>
<parameter name="check_properties" condition="int">100</parameter>
<parameter name="checkproperties" condition="int">100</parameter>
<parameter name="current" condition="int">0</parameter>
<parameter name="dmcwalkersperthread" condition="real">2.5000e+02</parameter>
<parameter name="maxcpusecs" condition="real">3.6000e+05</parameter>
<parameter name="record_configs" condition="int">0</parameter>
<parameter name="record_walkers" condition="int">1</parameter>
<parameter name="recordconfigs" condition="int">0</parameter>
<parameter name="recordwalkers" condition="int">1</parameter>
<parameter name="rewind" condition="int">0</parameter>
<parameter name="samples" condition="real">2.5600e+05</parameter>
<parameter name="samplesperthread" condition="real">2.5000e+02</parameter>
<parameter name="steps" condition="int">2</parameter>
<parameter name="stepsbetweensamples" condition="int">1</parameter>
<parameter name="store_configs" condition="int">0</parameter>
<parameter name="storeconfigs" condition="int">0</parameter>
<parameter name="sub_steps" condition="int">5</parameter>
<parameter name="substeps" condition="int">5</parameter>
<parameter name="tau" condition="au">1.5000e-01</parameter>
<parameter name="time_step" condition="au">1.5000e-01</parameter>
<parameter name="timestep" condition="au">1.5000e-01</parameter>
<parameter name="use_drift" condition="string">no</parameter>
<parameter name="usedrift" condition="string">no</parameter>
<parameter name="walkers" condition="int">1</parameter>
<parameter name="warmup_steps" condition="int">0</parameter>
<parameter name="warmupsteps" condition="int">0</parameter>
  DumpConfig==false Nothing (configurations, state) will be saved.
  Walker Samples are dumped every 1 steps.
</vmc>
  EstimatorManagerBase::add replace LocalEnergy estimator.
  EstimatorManagerBase::add replace LocalEnergy estimator.
<optimization-report>
<vmc stage="main" blocks="200">
  Cannot make clones again. Use existing 1 clones
  Initial partition of walkers 0 1 
  Using Particle by Particle moves
  Walker moves without drift
  Total Sample Size   =256000
  Walker distribution on root = 0 1 
  Using Locality Approximation
===== Memory Usage after the buffer registration =====
Available memory on node 0, free + buffers : 84681 MB
Memory footprint by rank 0 on node 0       : 89 MB
==================================================
====================================================
  SimpleFixedNodeBranch::finalize after a VMC block
    QMC counter        = 9
    time step          = 0.15
    reference energy   = -28.176
    reference variance = 0.396355
====================================================
  Execution time = 2.1743e+00
</vmc>
<opt stage="setup">
  <log>
   Reading configurations from h5FileRoot K.log.s009
  QMCCostFunction is created with 1 threads.
  Using Nonlocal PP in Opt: NonLocalECP
   Number of samples loaded to each thread : 250 
  VMC Eavg = -2.8207e+01
  VMC Evar = 3.5620e-01
  Total weights = 2.5600e+05
  Execution time = 6.3910e-01
  </log>
</opt>
<opt stage="main" walkers="256000">
  <log>

*****************************************
Building overlap and Hamiltonian matrices
*****************************************

Among totally 30 optimized parameters, largest LM parameter change : 4.3972e-02 at parameter 25

******************************************************************************
Init Cost =   3.5620e-01    New Cost =   3.5624e-01  Delta Cost =   4.2811e-05
******************************************************************************

The new set of parameters is valid. Updating the trial wave function!

*****************************************************************************
Applying the update for shift_i =   1.0000e-02     and shift_s =   3.9062e-03
*****************************************************************************
  Execution time = 3.3738e+00
  </log>
  <optVariables href="K.log.s009.opt.xml">
uu_0 3.8181e-01 1 1  ON 0
uu_1 8.2116e-02 1 1  ON 1
uu_2 -3.4983e-02 1 1  ON 2
uu_3 -9.4987e-02 1 1  ON 3
uu_4 -1.1102e-01 1 1  ON 4
uu_5 -1.0488e-01 1 1  ON 5
uu_6 -6.0585e-02 1 1  ON 6
uu_7 -2.0263e-02 1 1  ON 7
uu_8 -6.7736e-03 1 1  ON 8
uu_9 -1.6395e-02 1 1  ON 9
ud_0 4.6918e-01 1 1  ON 10
ud_1 8.4363e-02 1 1  ON 11
ud_2 -4.0350e-02 1 1  ON 12
ud_3 -1.1801e-01 1 1  ON 13
ud_4 -1.2225e-01 1 1  ON 14
ud_5 -1.2001e-01 1 1  ON 15
ud_6 -6.8045e-02 1 1  ON 16
ud_7 -3.1961e-02 1 1  ON 17
ud_8 -1.9221e-02 1 1  ON 18
ud_9 -1.4282e-02 1 1  ON 19
eK_0 -1.8363e+00 1 1  ON 20
eK_1 -7.4444e-01 1 1  ON 21
eK_2 1.0568e-01 1 1  ON 22
eK_3 5.9425e-01 1 1  ON 23
eK_4 7.6040e-01 1 1  ON 24
eK_5 6.8463e-01 1 1  ON 25
eK_6 3.6126e-01 1 1  ON 26
eK_7 8.0703e-02 1 1  ON 27
eK_8 3.0838e-03 1 1  ON 28
eK_9 -4.0467e-03 1 1  ON 29
  </optVariables>
   Restore the number of walkers to 1, removing 0 walkers.
</opt>
</optimization-report>
  QMC Execution time = 3.3821e+00 secs
  Reusing QMCFixedSampleLinearOptimize
 Using QMCCostFunction::QMCCostFunction

=========================================================
  Start QMCFixedSampleLinearOptimize
  File Root K.log.s010 append = no 
=========================================================
  Skip QMCDriver::putQMCInfo 
  Resetting Properties of the walkers 1 x 13

=========================================================
  Start VMC
  File Root K.log.s010 append = no 
=========================================================
Using existing walkers 
  Resetting Properties of the walkers 1 x 13

<vmc function="put">
  qmc_counter=4  my_counter=9
  time step      = 1.5000e-01
  blocks         = 200
  steps          = 2
  substeps       = 5
  current        = 0
  target samples = 2.5600e+05
  walkers/mpi    = 1

  stepsbetweensamples = 1
<parameter name="blocks" condition="int">200</parameter>
<parameter name="blocks_between_recompute" condition="int">0</parameter>
<parameter name="check_properties" condition="int">100</parameter>
<parameter name="checkproperties" condition="int">100</parameter>
<parameter name="current" condition="int">0</parameter>
<parameter name="dmcwalkersperthread" condition="real">2.5000e+02</parameter>
<parameter name="maxcpusecs" condition="real">3.6000e+05</parameter>
<parameter name="record_configs" condition="int">0</parameter>
<parameter name="record_walkers" condition="int">1</parameter>
<parameter name="recordconfigs" condition="int">0</parameter>
<parameter name="recordwalkers" condition="int">1</parameter>
<parameter name="rewind" condition="int">0</parameter>
<parameter name="samples" condition="real">2.5600e+05</parameter>
<parameter name="samplesperthread" condition="real">2.5000e+02</parameter>
<parameter name="steps" condition="int">2</parameter>
<parameter name="stepsbetweensamples" condition="int">1</parameter>
<parameter name="store_configs" condition="int">0</parameter>
<parameter name="storeconfigs" condition="int">0</parameter>
<parameter name="sub_steps" condition="int">5</parameter>
<parameter name="substeps" condition="int">5</parameter>
<parameter name="tau" condition="au">1.5000e-01</parameter>
<parameter name="time_step" condition="au">1.5000e-01</parameter>
<parameter name="timestep" condition="au">1.5000e-01</parameter>
<parameter name="use_drift" condition="string">no</parameter>
<parameter name="usedrift" condition="string">no</parameter>
<parameter name="walkers" condition="int">1</parameter>
<parameter name="warmup_steps" condition="int">0</parameter>
<parameter name="warmupsteps" condition="int">0</parameter>
  DumpConfig==false Nothing (configurations, state) will be saved.
  Walker Samples are dumped every 1 steps.
</vmc>
  EstimatorManagerBase::add replace LocalEnergy estimator.
  EstimatorManagerBase::add replace LocalEnergy estimator.
<optimization-report>
<vmc stage="main" blocks="200">
  Cannot make clones again. Use existing 1 clones
  Initial partition of walkers 0 1 
  Using Particle by Particle moves
  Walker moves without drift
  Total Sample Size   =256000
  Walker distribution on root = 0 1 
  Using Locality Approximation
===== Memory Usage after the buffer registration =====
Available memory on node 0, free + buffers : 84679 MB
Memory footprint by rank 0 on node 0       : 90 MB
==================================================
====================================================
  SimpleFixedNodeBranch::finalize after a VMC block
    QMC counter        = 10
    time step          = 0.15
    reference energy   = -28.1932
    reference variance = 0.409393
====================================================
  Execution time = 2.1645e+00
</vmc>
<opt stage="setup">
  <log>
   Reading configurations from h5FileRoot K.log.s010
  QMCCostFunction is created with 1 threads.
  Using Nonlocal PP in Opt: NonLocalECP
   Number of samples loaded to each thread : 250 
  VMC Eavg = -2.8208e+01
  VMC Evar = 3.6760e-01
  Total weights = 2.5600e+05
  Execution time = 6.0595e-01
  </log>
</opt>
<opt stage="main" walkers="256000">
  <log>

*****************************************
Building overlap and Hamiltonian matrices
*****************************************

Among totally 30 optimized parameters, largest LM parameter change : 4.5464e-02 at parameter 26

******************************************************************************
Init Cost =   3.6760e-01    New Cost =   3.6861e-01  Delta Cost =   1.0045e-03
******************************************************************************

The new set of parameters is valid. Updating the trial wave function!

*****************************************************************************
Applying the update for shift_i =   1.0000e-02     and shift_s =   3.9062e-03
*****************************************************************************
  Execution time = 3.3100e+00
  </log>
  <optVariables href="K.log.s010.opt.xml">
uu_0 3.8220e-01 1 1  ON 0
uu_1 8.1789e-02 1 1  ON 1
uu_2 -3.5749e-02 1 1  ON 2
uu_3 -9.4721e-02 1 1  ON 3
uu_4 -1.1144e-01 1 1  ON 4
uu_5 -1.0743e-01 1 1  ON 5
uu_6 -6.4723e-02 1 1  ON 6
uu_7 -2.1289e-02 1 1  ON 7
uu_8 -2.5636e-03 1 1  ON 8
uu_9 -1.2082e-02 1 1  ON 9
ud_0 4.7333e-01 1 1  ON 10
ud_1 8.7769e-02 1 1  ON 11
ud_2 -3.7984e-02 1 1  ON 12
ud_3 -1.1578e-01 1 1  ON 13
ud_4 -1.2662e-01 1 1  ON 14
ud_5 -1.2451e-01 1 1  ON 15
ud_6 -8.1259e-02 1 1  ON 16
ud_7 -3.0984e-02 1 1  ON 17
ud_8 -1.4045e-02 1 1  ON 18
ud_9 -9.6850e-03 1 1  ON 19
eK_0 -1.8765e+00 1 1  ON 20
eK_1 -7.7838e-01 1 1  ON 21
eK_2 7.2956e-02 1 1  ON 22
eK_3 5.8280e-01 1 1  ON 23
eK_4 7.6726e-01 1 1  ON 24
eK_5 7.2833e-01 1 1  ON 25
eK_6 4.0672e-01 1 1  ON 26
eK_7 9.9062e-02 1 1  ON 27
eK_8 5.3602e-03 1 1  ON 28
eK_9 -2.0026e-03 1 1  ON 29
  </optVariables>
   Restore the number of walkers to 1, removing 0 walkers.
</opt>
</optimization-report>
  QMC Execution time = 3.3177e+00 secs
Loop execution max-interations = 10
  Reusing QMCFixedSampleLinearOptimize
 Using QMCCostFunction::QMCCostFunction

=========================================================
  Start QMCFixedSampleLinearOptimize
  File Root K.log.s011 append = no 
=========================================================
  Skip QMCDriver::putQMCInfo 
  Resetting Properties of the walkers 1 x 13

=========================================================
  Start VMC
  File Root K.log.s011 append = no 
=========================================================
  Using the current 1 walkers.
  Total number of walkers: 1.0240e+03
  Total weight: 1.0240e+03
  Resetting Properties of the walkers 1 x 13

<vmc function="put">
  qmc_counter=0  my_counter=10
  time step      = 1.5000e-01
  blocks         = 200
  steps          = 3
  substeps       = 5
  current        = 0
  target samples = 5.1200e+05
  walkers/mpi    = 1

  stepsbetweensamples = 1
<parameter name="blocks" condition="int">200</parameter>
<parameter name="blocks_between_recompute" condition="int">0</parameter>
<parameter name="check_properties" condition="int">100</parameter>
<parameter name="checkproperties" condition="int">100</parameter>
<parameter name="current" condition="int">0</parameter>
<parameter name="dmcwalkersperthread" condition="real">5.0000e+02</parameter>
<parameter name="maxcpusecs" condition="real">3.6000e+05</parameter>
<parameter name="record_configs" condition="int">0</parameter>
<parameter name="record_walkers" condition="int">1</parameter>
<parameter name="recordconfigs" condition="int">0</parameter>
<parameter name="recordwalkers" condition="int">1</parameter>
<parameter name="rewind" condition="int">0</parameter>
<parameter name="samples" condition="real">5.1200e+05</parameter>
<parameter name="samplesperthread" condition="real">5.0000e+02</parameter>
<parameter name="steps" condition="int">3</parameter>
<parameter name="stepsbetweensamples" condition="int">1</parameter>
<parameter name="store_configs" condition="int">0</parameter>
<parameter name="storeconfigs" condition="int">0</parameter>
<parameter name="sub_steps" condition="int">5</parameter>
<parameter name="substeps" condition="int">5</parameter>
<parameter name="tau" condition="au">1.5000e-01</parameter>
<parameter name="time_step" condition="au">1.5000e-01</parameter>
<parameter name="timestep" condition="au">1.5000e-01</parameter>
<parameter name="use_drift" condition="string">no</parameter>
<parameter name="usedrift" condition="string">no</parameter>
<parameter name="walkers" condition="int">1</parameter>
<parameter name="warmup_steps" condition="int">0</parameter>
<parameter name="warmupsteps" condition="int">0</parameter>
  DumpConfig==false Nothing (configurations, state) will be saved.
  Walker Samples are dumped every 1 steps.
</vmc>
  EstimatorManagerBase::add replace LocalEnergy estimator.
  EstimatorManagerBase::add replace LocalEnergy estimator.
<optimization-report>
<vmc stage="main" blocks="200">
  Cannot make clones again. Use existing 1 clones
  Initial partition of walkers 0 1 
  Using Particle by Particle moves
  Walker moves without drift
  Total Sample Size   =512000
  Walker distribution on root = 0 1 
  Using Locality Approximation
===== Memory Usage after the buffer registration =====
Available memory on node 0, free + buffers : 84677 MB
Memory footprint by rank 0 on node 0       : 92 MB
==================================================
====================================================
  SimpleFixedNodeBranch::finalize after a VMC block
    QMC counter        = 11
    time step          = 0.15
    reference energy   = -28.2202
    reference variance = 0.261349
====================================================
  Execution time = 2.6767e+00
</vmc>
<opt stage="setup">
  <log>
   Reading configurations from h5FileRoot K.log.s011
  QMCCostFunction is created with 1 threads.
  Using Nonlocal PP in Opt: NonLocalECP
   Number of samples loaded to each thread : 500 
  VMC Eavg = -2.8208e+01
  VMC Evar = 3.6085e-01
  Total weights = 5.1200e+05
  Execution time = 1.1016e+00
  </log>
</opt>
<opt stage="main" walkers="512000">
  <log>

*****************************************
Building overlap and Hamiltonian matrices
*****************************************

Among totally 30 optimized parameters, largest LM parameter change : 4.3722e-02 at parameter 26

******************************************************************************
Init Cost =  -2.6779e+01    New Cost =  -2.6780e+01  Delta Cost =  -2.4141e-04
******************************************************************************

The new set of parameters is valid. Updating the trial wave function!

*****************************************************************************
Applying the update for shift_i =   1.0000e-02     and shift_s =   3.9062e-03
*****************************************************************************
  Execution time = 4.8601e+00
  </log>
  <optVariables href="K.log.s011.opt.xml">
uu_0 3.9178e-01 1 1  ON 0
uu_1 9.0705e-02 1 1  ON 1
uu_2 -2.5562e-02 1 1  ON 2
uu_3 -8.8410e-02 1 1  ON 3
uu_4 -1.1071e-01 1 1  ON 4
uu_5 -1.0714e-01 1 1  ON 5
uu_6 -6.7135e-02 1 1  ON 6
uu_7 -2.7350e-02 1 1  ON 7
uu_8 -1.1817e-02 1 1  ON 8
uu_9 -2.1490e-02 1 1  ON 9
ud_0 4.7916e-01 1 1  ON 10
ud_1 9.4328e-02 1 1  ON 11
ud_2 -3.0970e-02 1 1  ON 12
ud_3 -1.1043e-01 1 1  ON 13
ud_4 -1.2395e-01 1 1  ON 14
ud_5 -1.2495e-01 1 1  ON 15
ud_6 -8.0907e-02 1 1  ON 16
ud_7 -3.6338e-02 1 1  ON 17
ud_8 -1.9365e-02 1 1  ON 18
ud_9 -1.8863e-02 1 1  ON 19
eK_0 -1.9014e+00 1 1  ON 20
eK_1 -8.0832e-01 1 1  ON 21
eK_2 4.7038e-02 1 1  ON 22
eK_3 5.6807e-01 1 1  ON 23
eK_4 7.8112e-01 1 1  ON 24
eK_5 7.5585e-01 1 1  ON 25
eK_6 4.5044e-01 1 1  ON 26
eK_7 1.1316e-01 1 1  ON 27
eK_8 6.0878e-03 1 1  ON 28
eK_9 -4.4762e-03 1 1  ON 29
  </optVariables>
   Restore the number of walkers to 1, removing 0 walkers.
</opt>
</optimization-report>
  QMC Execution time = 4.8686e+00 secs
  Reusing QMCFixedSampleLinearOptimize
 Using QMCCostFunction::QMCCostFunction

=========================================================
  Start QMCFixedSampleLinearOptimize
  File Root K.log.s012 append = no 
=========================================================
  Skip QMCDriver::putQMCInfo 
  Resetting Properties of the walkers 1 x 13

=========================================================
  Start VMC
  File Root K.log.s012 append = no 
=========================================================
Using existing walkers 
  Resetting Properties of the walkers 1 x 13

<vmc function="put">
  qmc_counter=1  my_counter=11
  time step      = 1.5000e-01
  blocks         = 200
  steps          = 3
  substeps       = 5
  current        = 0
  target samples = 5.1200e+05
  walkers/mpi    = 1

  stepsbetweensamples = 1
<parameter name="blocks" condition="int">200</parameter>
<parameter name="blocks_between_recompute" condition="int">0</parameter>
<parameter name="check_properties" condition="int">100</parameter>
<parameter name="checkproperties" condition="int">100</parameter>
<parameter name="current" condition="int">0</parameter>
<parameter name="dmcwalkersperthread" condition="real">5.0000e+02</parameter>
<parameter name="maxcpusecs" condition="real">3.6000e+05</parameter>
<parameter name="record_configs" condition="int">0</parameter>
<parameter name="record_walkers" condition="int">1</parameter>
<parameter name="recordconfigs" condition="int">0</parameter>
<parameter name="recordwalkers" condition="int">1</parameter>
<parameter name="rewind" condition="int">0</parameter>
<parameter name="samples" condition="real">5.1200e+05</parameter>
<parameter name="samplesperthread" condition="real">5.0000e+02</parameter>
<parameter name="steps" condition="int">3</parameter>
<parameter name="stepsbetweensamples" condition="int">1</parameter>
<parameter name="store_configs" condition="int">0</parameter>
<parameter name="storeconfigs" condition="int">0</parameter>
<parameter name="sub_steps" condition="int">5</parameter>
<parameter name="substeps" condition="int">5</parameter>
[...]
  Execution time = 2.4512e+00
</vmc>
<opt stage="setup">
  <log>
   Reading configurations from h5FileRoot K.log.s017
  QMCCostFunction is created with 1 threads.
  Using Nonlocal PP in Opt: NonLocalECP
   Number of samples loaded to each thread : 500 
  VMC Eavg = -2.8209e+01
  VMC Evar = 3.5931e-01
  Total weights = 5.1200e+05
  Execution time = 7.9747e-01
  </log>
</opt>
<opt stage="main" walkers="512000">
  <log>

*****************************************
Building overlap and Hamiltonian matrices
*****************************************

Among totally 30 optimized parameters, largest LM parameter change : 2.8919e-02 at parameter 26

******************************************************************************
Init Cost =  -2.6781e+01    New Cost =  -2.6781e+01  Delta Cost =  -1.1813e-04
******************************************************************************

The new set of parameters is valid. Updating the trial wave function!

*****************************************************************************
Applying the update for shift_i =   1.0000e-02     and shift_s =   3.9062e-03
*****************************************************************************
  Execution time = 3.9678e+00
  </log>
  <optVariables href="K.log.s017.opt.xml">
uu_0 4.0679e-01 1 1  ON 0
uu_1 1.0544e-01 1 1  ON 1
uu_2 -1.3370e-02 1 1  ON 2
uu_3 -8.2680e-02 1 1  ON 3
uu_4 -1.1389e-01 1 1  ON 4
uu_5 -1.2746e-01 1 1  ON 5
uu_6 -9.8765e-02 1 1  ON 6
uu_7 -4.4621e-02 1 1  ON 7
uu_8 -7.5503e-04 1 1  ON 8
uu_9 -7.0374e-03 1 1  ON 9
ud_0 4.8980e-01 1 1  ON 10
ud_1 1.0464e-01 1 1  ON 11
ud_2 -2.2857e-02 1 1  ON 12
ud_3 -1.0659e-01 1 1  ON 13
ud_4 -1.2538e-01 1 1  ON 14
ud_5 -1.3997e-01 1 1  ON 15
ud_6 -1.0417e-01 1 1  ON 16
ud_7 -5.0028e-02 1 1  ON 17
ud_8 -1.4897e-02 1 1  ON 18
ud_9 -1.0111e-02 1 1  ON 19
eK_0 -2.0339e+00 1 1  ON 20
eK_1 -9.3320e-01 1 1  ON 21
eK_2 -5.9279e-02 1 1  ON 22
eK_3 5.0780e-01 1 1  ON 23
eK_4 7.8551e-01 1 1  ON 24
eK_5 8.5610e-01 1 1  ON 25
eK_6 6.3324e-01 1 1  ON 26
eK_7 2.2481e-01 1 1  ON 27
eK_8 2.6702e-02 1 1  ON 28
eK_9 -1.3102e-03 1 1  ON 29
  </optVariables>
   Restore the number of walkers to 1, removing 0 walkers.
</opt>
</optimization-report>
  QMC Execution time = 3.9760e+00 secs
  Reusing QMCFixedSampleLinearOptimize
 Using QMCCostFunction::QMCCostFunction

=========================================================
  Start QMCFixedSampleLinearOptimize
  File Root K.log.s018 append = no 
=========================================================
  Skip QMCDriver::putQMCInfo 
  Resetting Properties of the walkers 1 x 13

=========================================================
  Start VMC
  File Root K.log.s018 append = no 
=========================================================
Using existing walkers 
  Resetting Properties of the walkers 1 x 13

<vmc function="put">
  qmc_counter=7  my_counter=17
  time step      = 1.5000e-01
  blocks         = 200
  steps          = 3
  substeps       = 5
  current        = 0
  target samples = 5.1200e+05
  walkers/mpi    = 1

  stepsbetweensamples = 1
<parameter name="blocks" condition="int">200</parameter>
<parameter name="blocks_between_recompute" condition="int">0</parameter>
<parameter name="check_properties" condition="int">100</parameter>
<parameter name="checkproperties" condition="int">100</parameter>
<parameter name="current" condition="int">0</parameter>
<parameter name="dmcwalkersperthread" condition="real">5.0000e+02</parameter>
<parameter name="maxcpusecs" condition="real">3.6000e+05</parameter>
<parameter name="record_configs" condition="int">0</parameter>
<parameter name="record_walkers" condition="int">1</parameter>
<parameter name="recordconfigs" condition="int">0</parameter>
<parameter name="recordwalkers" condition="int">1</parameter>
<parameter name="rewind" condition="int">0</parameter>
<parameter name="samples" condition="real">5.1200e+05</parameter>
<parameter name="samplesperthread" condition="real">5.0000e+02</parameter>
<parameter name="steps" condition="int">3</parameter>
<parameter name="stepsbetweensamples" condition="int">1</parameter>
<parameter name="store_configs" condition="int">0</parameter>
<parameter name="storeconfigs" condition="int">0</parameter>
<parameter name="sub_steps" condition="int">5</parameter>
<parameter name="substeps" condition="int">5</parameter>
<parameter name="tau" condition="au">1.5000e-01</parameter>
<parameter name="time_step" condition="au">1.5000e-01</parameter>
<parameter name="timestep" condition="au">1.5000e-01</parameter>
<parameter name="use_drift" condition="string">no</parameter>
<parameter name="usedrift" condition="string">no</parameter>
<parameter name="walkers" condition="int">1</parameter>
<parameter name="warmup_steps" condition="int">0</parameter>
<parameter name="warmupsteps" condition="int">0</parameter>
  DumpConfig==false Nothing (configurations, state) will be saved.
  Walker Samples are dumped every 1 steps.
</vmc>
  EstimatorManagerBase::add replace LocalEnergy estimator.
  EstimatorManagerBase::add replace LocalEnergy estimator.
<optimization-report>
<vmc stage="main" blocks="200">
  Cannot make clones again. Use existing 1 clones
  Initial partition of walkers 0 1 
  Using Particle by Particle moves
  Walker moves without drift
  Total Sample Size   =512000
  Walker distribution on root = 0 1 
  Using Locality Approximation
===== Memory Usage after the buffer registration =====
Available memory on node 0, free + buffers : 84625 MB
Memory footprint by rank 0 on node 0       : 105 MB
==================================================
====================================================
  SimpleFixedNodeBranch::finalize after a VMC block
    QMC counter        = 18
    time step          = 0.15
    reference energy   = -28.1637
    reference variance = 0.408957
====================================================
  Execution time = 2.4093e+00
</vmc>
<opt stage="setup">
  <log>
   Reading configurations from h5FileRoot K.log.s018
  QMCCostFunction is created with 1 threads.
  Using Nonlocal PP in Opt: NonLocalECP
   Number of samples loaded to each thread : 500 
  VMC Eavg = -2.8209e+01
  VMC Evar = 3.5990e-01
  Total weights = 5.1200e+05
  Execution time = 7.4480e-01
  </log>
</opt>
<opt stage="main" walkers="512000">
  <log>

*****************************************
Building overlap and Hamiltonian matrices
*****************************************

Among totally 30 optimized parameters, largest LM parameter change : 2.6142e-02 at parameter 26

******************************************************************************
Init Cost =  -2.6781e+01    New Cost =  -2.6781e+01  Delta Cost =  -6.7857e-05
******************************************************************************

The new set of parameters is valid. Updating the trial wave function!

*****************************************************************************
Applying the update for shift_i =   1.0000e-02     and shift_s =   3.9062e-03
*****************************************************************************
  Execution time = 3.8808e+00
  </log>
  <optVariables href="K.log.s018.opt.xml">
uu_0 4.0232e-01 1 1  ON 0
uu_1 1.0021e-01 1 1  ON 1
uu_2 -1.7225e-02 1 1  ON 2
uu_3 -8.4334e-02 1 1  ON 3
uu_4 -1.1452e-01 1 1  ON 4
uu_5 -1.2611e-01 1 1  ON 5
uu_6 -9.9823e-02 1 1  ON 6
uu_7 -4.1285e-02 1 1  ON 7
uu_8 6.8161e-03 1 1  ON 8
uu_9 -1.4563e-03 1 1  ON 9
ud_0 4.9015e-01 1 1  ON 10
ud_1 1.0422e-01 1 1  ON 11
ud_2 -2.2436e-02 1 1  ON 12
ud_3 -1.0749e-01 1 1  ON 13
ud_4 -1.2874e-01 1 1  ON 14
ud_5 -1.4289e-01 1 1  ON 15
ud_6 -1.0737e-01 1 1  ON 16
ud_7 -4.9828e-02 1 1  ON 17
ud_8 -8.5607e-03 1 1  ON 18
ud_9 -6.9021e-03 1 1  ON 19
eK_0 -2.0487e+00 1 1  ON 20
eK_1 -9.5080e-01 1 1  ON 21
eK_2 -7.7036e-02 1 1  ON 22
eK_3 4.9446e-01 1 1  ON 23
eK_4 7.8194e-01 1 1  ON 24
eK_5 8.6847e-01 1 1  ON 25
eK_6 6.5938e-01 1 1  ON 26
eK_7 2.4566e-01 1 1  ON 27
eK_8 3.3692e-02 1 1  ON 28
eK_9 -4.1666e-04 1 1  ON 29
  </optVariables>
   Restore the number of walkers to 1, removing 0 walkers.
</opt>
</optimization-report>
  QMC Execution time = 3.8891e+00 secs
  Reusing QMCFixedSampleLinearOptimize
 Using QMCCostFunction::QMCCostFunction

=========================================================
  Start QMCFixedSampleLinearOptimize
  File Root K.log.s019 append = no 
=========================================================
  Skip QMCDriver::putQMCInfo 
  Resetting Properties of the walkers 1 x 13

=========================================================
  Start VMC
  File Root K.log.s019 append = no 
=========================================================
Using existing walkers 
  Resetting Properties of the walkers 1 x 13

<vmc function="put">
  qmc_counter=8  my_counter=18
  time step      = 1.5000e-01
  blocks         = 200
  steps          = 3
  substeps       = 5
  current        = 0
  target samples = 5.1200e+05
  walkers/mpi    = 1

  stepsbetweensamples = 1
<parameter name="blocks" condition="int">200</parameter>
<parameter name="blocks_between_recompute" condition="int">0</parameter>
<parameter name="check_properties" condition="int">100</parameter>
<parameter name="checkproperties" condition="int">100</parameter>
<parameter name="current" condition="int">0</parameter>
<parameter name="dmcwalkersperthread" condition="real">5.0000e+02</parameter>
<parameter name="maxcpusecs" condition="real">3.6000e+05</parameter>
<parameter name="record_configs" condition="int">0</parameter>
<parameter name="record_walkers" condition="int">1</parameter>
<parameter name="recordconfigs" condition="int">0</parameter>
<parameter name="recordwalkers" condition="int">1</parameter>
<parameter name="rewind" condition="int">0</parameter>
<parameter name="samples" condition="real">5.1200e+05</parameter>
<parameter name="samplesperthread" condition="real">5.0000e+02</parameter>
<parameter name="steps" condition="int">3</parameter>
<parameter name="stepsbetweensamples" condition="int">1</parameter>
<parameter name="store_configs" condition="int">0</parameter>
<parameter name="storeconfigs" condition="int">0</parameter>
<parameter name="sub_steps" condition="int">5</parameter>
<parameter name="substeps" condition="int">5</parameter>
<parameter name="tau" condition="au">1.5000e-01</parameter>
<parameter name="time_step" condition="au">1.5000e-01</parameter>
<parameter name="timestep" condition="au">1.5000e-01</parameter>
<parameter name="use_drift" condition="string">no</parameter>
<parameter name="usedrift" condition="string">no</parameter>
<parameter name="walkers" condition="int">1</parameter>
<parameter name="warmup_steps" condition="int">0</parameter>
<parameter name="warmupsteps" condition="int">0</parameter>
  DumpConfig==false Nothing (configurations, state) will be saved.
  Walker Samples are dumped every 1 steps.
</vmc>
  EstimatorManagerBase::add replace LocalEnergy estimator.
  EstimatorManagerBase::add replace LocalEnergy estimator.
<optimization-report>
<vmc stage="main" blocks="200">
  Cannot make clones again. Use existing 1 clones
  Initial partition of walkers 0 1 
  Using Particle by Particle moves
  Walker moves without drift
  Total Sample Size   =512000
  Walker distribution on root = 0 1 
  Using Locality Approximation
===== Memory Usage after the buffer registration =====
Available memory on node 0, free + buffers : 84623 MB
Memory footprint by rank 0 on node 0       : 107 MB
==================================================
====================================================
  SimpleFixedNodeBranch::finalize after a VMC block
    QMC counter        = 19
    time step          = 0.15
    reference energy   = -28.2232
    reference variance = 0.330738
====================================================
  Execution time = 2.4258e+00
</vmc>
<opt stage="setup">
  <log>
   Reading configurations from h5FileRoot K.log.s019
  QMCCostFunction is created with 1 threads.
  Using Nonlocal PP in Opt: NonLocalECP
   Number of samples loaded to each thread : 500 
  VMC Eavg = -2.8209e+01
  VMC Evar = 3.5897e-01
  Total weights = 5.1200e+05
  Execution time = 7.3850e-01
  </log>
</opt>
<opt stage="main" walkers="512000">
  <log>

*****************************************
Building overlap and Hamiltonian matrices
*****************************************

Among totally 30 optimized parameters, largest LM parameter change : 1.9789e-02 at parameter 26

******************************************************************************
Init Cost =  -2.6780e+01    New Cost =  -2.6780e+01  Delta Cost =  -3.3524e-05
******************************************************************************

The new set of parameters is valid. Updating the trial wave function!

*****************************************************************************
Applying the update for shift_i =   1.0000e-02     and shift_s =   3.9062e-03
*****************************************************************************
  Execution time = 3.8681e+00
  </log>
  <optVariables href="K.log.s019.opt.xml">
uu_0 4.0616e-01 1 1  ON 0
uu_1 1.0420e-01 1 1  ON 1
uu_2 -1.4258e-02 1 1  ON 2
uu_3 -8.2070e-02 1 1  ON 3
uu_4 -1.1502e-01 1 1  ON 4
uu_5 -1.2817e-01 1 1  ON 5
uu_6 -1.0208e-01 1 1  ON 6
uu_7 -4.1673e-02 1 1  ON 7
uu_8 2.9946e-03 1 1  ON 8
uu_9 -3.4612e-03 1 1  ON 9
ud_0 4.9517e-01 1 1  ON 10
ud_1 1.0913e-01 1 1  ON 11
ud_2 -1.7945e-02 1 1  ON 12
ud_3 -1.0270e-01 1 1  ON 13
ud_4 -1.2593e-01 1 1  ON 14
ud_5 -1.3989e-01 1 1  ON 15
ud_6 -1.1211e-01 1 1  ON 16
ud_7 -6.1296e-02 1 1  ON 17
ud_8 -1.1952e-02 1 1  ON 18
ud_9 -8.5835e-03 1 1  ON 19
eK_0 -2.0659e+00 1 1  ON 20
eK_1 -9.6508e-01 1 1  ON 21
eK_2 -8.9196e-02 1 1  ON 22
eK_3 4.8769e-01 1 1  ON 23
eK_4 7.8319e-01 1 1  ON 24
eK_5 8.7904e-01 1 1  ON 25
eK_6 6.7917e-01 1 1  ON 26
eK_7 2.6258e-01 1 1  ON 27
eK_8 3.6332e-02 1 1  ON 28
eK_9 -4.6685e-04 1 1  ON 29
  </optVariables>
   Restore the number of walkers to 1, removing 0 walkers.
</opt>
</optimization-report>
  QMC Execution time = 3.8762e+00 secs
  Reusing QMCFixedSampleLinearOptimize
 Using QMCCostFunction::QMCCostFunction

=========================================================
  Start QMCFixedSampleLinearOptimize
  File Root K.log.s020 append = no 
=========================================================
  Skip QMCDriver::putQMCInfo 
  Resetting Properties of the walkers 1 x 13

=========================================================
  Start VMC
  File Root K.log.s020 append = no 
=========================================================
Using existing walkers 
  Resetting Properties of the walkers 1 x 13

<vmc function="put">
  qmc_counter=9  my_counter=19
  time step      = 1.5000e-01
  blocks         = 200
  steps          = 3
  substeps       = 5
  current        = 0
  target samples = 5.1200e+05
  walkers/mpi    = 1

  stepsbetweensamples = 1
<parameter name="blocks" condition="int">200</parameter>
<parameter name="blocks_between_recompute" condition="int">0</parameter>
<parameter name="check_properties" condition="int">100</parameter>
<parameter name="checkproperties" condition="int">100</parameter>
<parameter name="current" condition="int">0</parameter>
<parameter name="dmcwalkersperthread" condition="real">5.0000e+02</parameter>
<parameter name="maxcpusecs" condition="real">3.6000e+05</parameter>
<parameter name="record_configs" condition="int">0</parameter>
<parameter name="record_walkers" condition="int">1</parameter>
<parameter name="recordconfigs" condition="int">0</parameter>
<parameter name="recordwalkers" condition="int">1</parameter>
<parameter name="rewind" condition="int">0</parameter>
<parameter name="samples" condition="real">5.1200e+05</parameter>
<parameter name="samplesperthread" condition="real">5.0000e+02</parameter>
<parameter name="steps" condition="int">3</parameter>
<parameter name="stepsbetweensamples" condition="int">1</parameter>
<parameter name="store_configs" condition="int">0</parameter>
<parameter name="storeconfigs" condition="int">0</parameter>
<parameter name="sub_steps" condition="int">5</parameter>
<parameter name="substeps" condition="int">5</parameter>
<parameter name="tau" condition="au">1.5000e-01</parameter>
<parameter name="time_step" condition="au">1.5000e-01</parameter>
<parameter name="timestep" condition="au">1.5000e-01</parameter>
<parameter name="use_drift" condition="string">no</parameter>
<parameter name="usedrift" condition="string">no</parameter>
<parameter name="walkers" condition="int">1</parameter>
<parameter name="warmup_steps" condition="int">0</parameter>
<parameter name="warmupsteps" condition="int">0</parameter>
  DumpConfig==false Nothing (configurations, state) will be saved.
  Walker Samples are dumped every 1 steps.
</vmc>
  EstimatorManagerBase::add replace LocalEnergy estimator.
  EstimatorManagerBase::add replace LocalEnergy estimator.
<optimization-report>
<vmc stage="main" blocks="200">
  Cannot make clones again. Use existing 1 clones
  Initial partition of walkers 0 1 
  Using Particle by Particle moves
  Walker moves without drift
  Total Sample Size   =512000
  Walker distribution on root = 0 1 
  Using Locality Approximation
===== Memory Usage after the buffer registration =====
Available memory on node 0, free + buffers : 84621 MB
Memory footprint by rank 0 on node 0       : 108 MB
==================================================
====================================================
  SimpleFixedNodeBranch::finalize after a VMC block
    QMC counter        = 20
    time step          = 0.15
    reference energy   = -28.197
    reference variance = 0.312833
====================================================
  Execution time = 2.4310e+00
</vmc>
<opt stage="setup">
  <log>
   Reading configurations from h5FileRoot K.log.s020
  QMCCostFunction is created with 1 threads.
  Using Nonlocal PP in Opt: NonLocalECP
   Number of samples loaded to each thread : 500 
  VMC Eavg = -2.8208e+01
  VMC Evar = 3.6249e-01
  Total weights = 5.1200e+05
  Execution time = 7.2155e-01
  </log>
</opt>
<opt stage="main" walkers="512000">
  <log>

*****************************************
Building overlap and Hamiltonian matrices
*****************************************

Among totally 30 optimized parameters, largest LM parameter change : 1.9956e-02 at parameter 26

******************************************************************************
Init Cost =  -2.6780e+01    New Cost =  -2.6780e+01  Delta Cost =  -6.3612e-05
******************************************************************************

The new set of parameters is valid. Updating the trial wave function!

*****************************************************************************
Applying the update for shift_i =   1.0000e-02     and shift_s =   3.9062e-03
*****************************************************************************
  Execution time = 3.8330e+00
  </log>
  <optVariables href="K.log.s020.opt.xml">
uu_0 4.1561e-01 1 1  ON 0
uu_1 1.1361e-01 1 1  ON 1
uu_2 -4.8054e-03 1 1  ON 2
uu_3 -7.3721e-02 1 1  ON 3
uu_4 -1.0897e-01 1 1  ON 4
uu_5 -1.2429e-01 1 1  ON 5
uu_6 -1.0135e-01 1 1  ON 6
uu_7 -4.7650e-02 1 1  ON 7
uu_8 -1.1389e-02 1 1  ON 8
uu_9 -2.0628e-02 1 1  ON 9
ud_0 5.0231e-01 1 1  ON 10
ud_1 1.1618e-01 1 1  ON 11
ud_2 -1.2514e-02 1 1  ON 12
ud_3 -9.7549e-02 1 1  ON 13
ud_4 -1.1933e-01 1 1  ON 14
ud_5 -1.3689e-01 1 1  ON 15
ud_6 -1.0971e-01 1 1  ON 16
ud_7 -6.0102e-02 1 1  ON 17
ud_8 -2.5142e-02 1 1  ON 18
ud_9 -2.3270e-02 1 1  ON 19
eK_0 -2.0789e+00 1 1  ON 20
eK_1 -9.7581e-01 1 1  ON 21
eK_2 -9.5239e-02 1 1  ON 22
eK_3 4.8112e-01 1 1  ON 23
eK_4 7.7793e-01 1 1  ON 24
eK_5 8.8878e-01 1 1  ON 25
eK_6 6.9912e-01 1 1  ON 26
eK_7 2.8053e-01 1 1  ON 27
eK_8 3.6151e-02 1 1  ON 28
eK_9 -4.4322e-03 1 1  ON 29
  </optVariables>
   Restore the number of walkers to 1, removing 0 walkers.
</opt>
</optimization-report>
  QMC Execution time = 3.8406e+00 secs
  Total Execution time = 8.2817e+01 secs

=========================================================
  A new xml input file : K.log.s020.cont.xml
TACC:  Shutdown complete. Exiting. 
