
 Primary working directories    : /global/cscratch1/sd/aannabe
 Secondary working directories  : /global/cscratch1/sd/aannabe
 Wavefunction directory         : /global/homes/a/aannabe/wfu/
 Main file repository           : /global/cscratch1/sd/aannabe/

 SHA1      : 19cd028119e0e09f93f0674bd8af7968d9b3eff6
 NAME      : 2015.1.36
 ARCHNAME  : linux/x86_64
 FC        : /opt/cray/pe/craype/2.5.14/bin/ftn
 BLASLIB   : -L/opt/intel/compilers_and_libraries_2018.1.163/linux/mkl/lib/intel64 -Wl,-_start-group -lmkl_intel_ilp64 -lmkl_intel_thread -lmkl_core -Wl,-_end-group -liomp5
 id        : lbl

 Nodes     nprocs
 nid00463     1

 Using customized tuning parameters: mindgm=7; mindgv=16; mindgc=1; mindgr=1; noblas=0; minvec=7
 default implementation of scratch files=df  

 ***,Br
 memory,8,g
 gthresh,twoint=1.e-12
 
 gprint,basis,orbitals
 gexpec,ekin,pot
 
 angstrom
 geometry={
 1                                                                               ! Number of atoms
 Br 0.0 0.0 0.0
 }
 
 basis={
 
 Including file /global/homes/a/aannabe/repos/pseudopotentiallibrary/recipes/Br/ccECP/Br.ccECP.molpro
 
                                   !include,/global/homes/a/aannabe/repos/pseudopotentiallibrary/recipes/Br/ccECP/Br.cc-pVQZ.molpro
                                  !include,/global/homes/a/aannabe/repos/pseudopotentiallibrary/recipes/Br/ccECP/Br.cc-pCVQZ.molpro
 Including file /global/homes/a/aannabe/repos/pseudopotentiallibrary/recipes/Br/ccECP/Br.aug-cc-pVQZ.molpro
 
 
 }
 
 
 {rhf
  start,atden
  wf,7,3,1
  occ,1,1,1,0,1,0,0,0
  open,1.3
  orbital,4202.2
 }
 {multi
  maxiter,40
  start,4202.2
  occ,1,1,1,0,1,0,0,0
  closed,1,0,0,0,0,0,0
  wf,7,3,1;state,1
  wf,7,5,1;state,1
  wf,7,2,1;state,1
  natorb,ci,print
  orbital,5202.2
 }
 {rhf,nitord=1,maxit=0
  start,5202.2
  wf,7,3,1
  occ,1,1,1,0,1,0,0,0
  open,1.3
 }
 
 scf(i)=energy
 
 _CC_NORM_MAX=2.0
 {rccsd(t)
 maxit,100
 core
 }
 posthf(i)=energy
 
 table,scf,posthf,ekin,pot
 save,4.csv,new
 
 

 Variables initialized (889), CPU time= 0.01 sec
 Commands  initialized (702), CPU time= 0.01 sec, 572 directives.
 Default parameters read. Elapsed time= 0.11 sec

 Checking input...
 Passed
1


                                         ***  PROGRAM SYSTEM MOLPRO  ***
                                       Copyright, TTI GmbH Stuttgart, 2015
                                    Version 2015.1 linked Dec 29 2018 15:55:43


 **********************************************************************************************************************************
 LABEL *   Br                                                                            
  64 bit serial version                                                                  DATE: 25-Jun-19          TIME: 12:32:32  
 **********************************************************************************************************************************

 SHA1:             19cd028119e0e09f93f0674bd8af7968d9b3eff6
 **********************************************************************************************************************************

 THRESHOLDS:

 ZERO    =  1.00D-12  ONEINT  =  1.00D-12  TWOINT  =  1.00D-12  PREFAC  =  1.00D-14  LOCALI  =  1.00D-09  EORDER  =  1.00D-04
 ENERGY  =  0.00D+00  ETEST   =  0.00D+00  EDENS   =  0.00D+00  THRDEDEF=  1.00D-06  GRADIENT=  1.00D-02  STEP    =  1.00D-03
 ORBITAL =  1.00D-05  CIVEC   =  1.00D-05  COEFF   =  1.00D-04  PRINTCI =  5.00D-02  PUNCHCI =  9.90D+01  OPTGRAD =  3.00D-04
 OPTENERG=  1.00D-06  OPTSTEP =  3.00D-04  THRGRAD =  1.00D-10  COMPRESS=  1.00D-11  VARMIN  =  1.00D-07  VARMAX  =  1.00D-03
 THRDOUB =  0.00D+00  THRDIV  =  1.00D-05  THRRED  =  1.00D-07  THRPSP  =  1.00D+00  THRDC   =  1.00D-10  THRCS   =  1.00D-10
 THRNRM  =  1.00D-08  THREQ   =  0.00D+00  THRDE   =  1.00D+00  THRREF  =  1.00D-05  SPARFAC =  1.00D+00  THRDLP  =  1.00D-07
 THRDIA  =  1.00D-10  THRDLS  =  1.00D-07  THRGPS  =  0.00D+00  THRKEX  =  0.00D+00  THRDIS  =  2.00D-01  THRVAR  =  1.00D-10
 THRLOC  =  1.00D-06  THRGAP  =  1.00D-06  THRLOCT = -1.00D+00  THRGAPT = -1.00D+00  THRORB  =  1.00D-06  THRMLTP =  0.00D+00
 THRCPQCI=  1.00D-10  KEXTA   =  0.00D+00  THRCOARS=  0.00D+00  SYMTOL  =  1.00D-06  GRADTOL =  1.00D-06  THROVL  =  1.00D-08
 THRORTH =  1.00D-08  GRID    =  1.00D-06  GRIDMAX =  1.00D-03  DTMAX   =  0.00D+00  THROCCDE=  1.00D-01  THROCCDE=  1.00D-01



 ZUNIT=ANG
 

Geometry recognized as XYZ


 Variable memory set to 8000000000 words,  buffer space   230000 words

 SETTING BASIS          =    USERDEF


 Recomputing integrals since basis changed


 Using spherical harmonics



 PROGRAM * SEWARD (Integral evaluation for generally contracted gaussian basis sets)     Author: Roland Lindh, 1990

 Geometry written to block  1 of record 700

 Orientation using atomic masses  
 Molecule type: Atom
 Symmetry elements: X,Y,Z
 Rotational constants:       0.0000000      0.0000000      0.0000000 GHz  (calculated with average atomic masses)

 Point group  D2h 



 ATOMIC COORDINATES

 NR  ATOM    CHARGE       X              Y              Z

   1  BR      7.00    0.000000000    0.000000000    0.000000000


          BR  CORE POTENTIAL

          f POTENTIAL

 POWERS             1              3              2              2
 EXPONENTIALS   3.665770       5.293023       3.176376       2.897544    
 COEFFICIENTS   7.000000       25.66039       13.04026      -21.90884    

          s - f POTENTIAL

 POWERS             2              2
 EXPONENTIALS   4.971807       2.042687    
 COEFFICIENTS   85.88435       4.621255    

          p - f POTENTIAL

 POWERS             2              2
 EXPONENTIALS   4.711839       2.384293    
 COEFFICIENTS   55.36172       11.03141    

          d - f POTENTIAL

 POWERS             2              2
 EXPONENTIALS   3.412863       1.530285    
 COEFFICIENTS   26.41041       5.468739    


 BASIS DATA

   Nr Sym  Nuc  Type         Exponents   Contraction coefficients

    1.1 Ag    1  1s          60.457695    -0.000452
                             27.422852     0.003372
                             12.438662    -0.025045
                              5.642021     0.170101
                              2.559150    -0.430992
                              1.160798    -0.154358
                              0.526524     0.525458
                              0.238824     0.592735
                              0.108328     0.169490
    2.1 Ag    1  1s           0.716355     1.000000
    3.1 Ag    1  1s           0.328206     1.000000
    4.1 Ag    1  1s           0.150371     1.000000
    5.1 Ag    1  1s           0.060148     1.000000
    6.1 Ag    1  3d0          1.865751     1.000000
    7.1 Ag    1  3d2+         1.865751     1.000000
    8.1 Ag    1  3d0          0.698782     1.000000
    9.1 Ag    1  3d2+         0.698782     1.000000
   10.1 Ag    1  3d0          0.261716     1.000000
   11.1 Ag    1  3d2+         0.261716     1.000000
   12.1 Ag    1  3d0          0.104686     1.000000
   13.1 Ag    1  3d2+         0.104686     1.000000
   14.1 Ag    1  5g0          0.673499     1.000000
   15.1 Ag    1  5g4+         0.673499     1.000000
   16.1 Ag    1  5g2+         0.673499     1.000000
   17.1 Ag    1  5g0          0.269400     1.000000
   18.1 Ag    1  5g4+         0.269400     1.000000
   19.1 Ag    1  5g2+         0.269400     1.000000
    1.2 B3u   1  2px         27.437987     0.000087
                             12.887440    -0.001797
                              6.053145     0.027150
                              2.843122    -0.134143
                              1.335395    -0.006234
                              0.627226     0.309551
                              0.294604     0.440285
                              0.138374     0.316750
                              0.064993     0.092533
    2.2 B3u   1  2px          0.750243     1.000000
    3.2 B3u   1  2px          0.285597     1.000000
    4.2 B3u   1  2px          0.108719     1.000000
    5.2 B3u   1  2px          0.043488     1.000000
    6.2 B3u   1  4f1+         0.852676     1.000000
    7.2 B3u   1  4f3+         0.852676     1.000000
    8.2 B3u   1  4f1+         0.345036     1.000000
    9.2 B3u   1  4f3+         0.345036     1.000000
   10.2 B3u   1  4f1+         0.138014     1.000000
   11.2 B3u   1  4f3+         0.138014     1.000000
    1.3 B2u   1  2py         27.437987     0.000087
                             12.887440    -0.001797
                              6.053145     0.027150
                              2.843122    -0.134143
                              1.335395    -0.006234
                              0.627226     0.309551
                              0.294604     0.440285
                              0.138374     0.316750
                              0.064993     0.092533
    2.3 B2u   1  2py          0.750243     1.000000
    3.3 B2u   1  2py          0.285597     1.000000
    4.3 B2u   1  2py          0.108719     1.000000
    5.3 B2u   1  2py          0.043488     1.000000
    6.3 B2u   1  4f1-         0.852676     1.000000
    7.3 B2u   1  4f3-         0.852676     1.000000
    8.3 B2u   1  4f1-         0.345036     1.000000
    9.3 B2u   1  4f3-         0.345036     1.000000
   10.3 B2u   1  4f1-         0.138014     1.000000
   11.3 B2u   1  4f3-         0.138014     1.000000
    1.4 B1g   1  3d2-         1.865751     1.000000
    2.4 B1g   1  3d2-         0.698782     1.000000
    3.4 B1g   1  3d2-         0.261716     1.000000
    4.4 B1g   1  3d2-         0.104686     1.000000
    5.4 B1g   1  5g2-         0.673499     1.000000
    6.4 B1g   1  5g4-         0.673499     1.000000
    7.4 B1g   1  5g2-         0.269400     1.000000
    8.4 B1g   1  5g4-         0.269400     1.000000
    1.5 B1u   1  2pz         27.437987     0.000087
                             12.887440    -0.001797
                              6.053145     0.027150
                              2.843122    -0.134143
                              1.335395    -0.006234
                              0.627226     0.309551
                              0.294604     0.440285
                              0.138374     0.316750
                              0.064993     0.092533
    2.5 B1u   1  2pz          0.750243     1.000000
    3.5 B1u   1  2pz          0.285597     1.000000
    4.5 B1u   1  2pz          0.108719     1.000000
    5.5 B1u   1  2pz          0.043488     1.000000
    6.5 B1u   1  4f0          0.852676     1.000000
    7.5 B1u   1  4f2+         0.852676     1.000000
    8.5 B1u   1  4f0          0.345036     1.000000
    9.5 B1u   1  4f2+         0.345036     1.000000
   10.5 B1u   1  4f0          0.138014     1.000000
   11.5 B1u   1  4f2+         0.138014     1.000000
    1.6 B2g   1  3d1+         1.865751     1.000000
    2.6 B2g   1  3d1+         0.698782     1.000000
    3.6 B2g   1  3d1+         0.261716     1.000000
    4.6 B2g   1  3d1+         0.104686     1.000000
    5.6 B2g   1  5g1+         0.673499     1.000000
    6.6 B2g   1  5g3+         0.673499     1.000000
    7.6 B2g   1  5g1+         0.269400     1.000000
    8.6 B2g   1  5g3+         0.269400     1.000000
    1.7 B3g   1  3d1-         1.865751     1.000000
    2.7 B3g   1  3d1-         0.698782     1.000000
    3.7 B3g   1  3d1-         0.261716     1.000000
    4.7 B3g   1  3d1-         0.104686     1.000000
    5.7 B3g   1  5g1-         0.673499     1.000000
    6.7 B3g   1  5g3-         0.673499     1.000000
    7.7 B3g   1  5g1-         0.269400     1.000000
    8.7 B3g   1  5g3-         0.269400     1.000000
    1.8 Au    1  4f2-         0.852676     1.000000
    2.8 Au    1  4f2-         0.345036     1.000000
    3.8 Au    1  4f2-         0.138014     1.000000

 NUCLEAR CHARGE:                    7
 NUMBER OF PRIMITIVE AOS:         136
 NUMBER OF SYMMETRY AOS:          111
 NUMBER OF CONTRACTIONS:           79   (  19Ag  +  11B3u +  11B2u +   8B1g +  11B1u +   8B2g +   8B3g +   3Au  )
 NUMBER OF CORE ORBITALS:           0   (   0Ag  +   0B3u +   0B2u +   0B1g +   0B1u +   0B2g +   0B3g +   0Au  )
 NUMBER OF VALENCE ORBITALS:        4   (   1Ag  +   1B3u +   1B2u +   0B1g +   1B1u +   0B2g +   0B3g +   0Au  )


 NUCLEAR REPULSION ENERGY    0.00000000

 EXTRA SYMMETRY OF AOS IN SYMMETRY 1:   1 1 1 1 1 2 3 2 3 2   3 2 3 4 5 6 4 5 6
 EXTRA SYMMETRY OF AOS IN SYMMETRY 2:   1 1 1 1 1 2 3 2 3 2   3
 EXTRA SYMMETRY OF AOS IN SYMMETRY 3:   1 1 1 1 1 2 3 2 3 2   3
 EXTRA SYMMETRY OF AOS IN SYMMETRY 4:   1 1 1 1 2 3 2 3
 EXTRA SYMMETRY OF AOS IN SYMMETRY 5:   1 1 1 1 1 2 3 2 3 2   3
 EXTRA SYMMETRY OF AOS IN SYMMETRY 6:   1 1 1 1 2 3 2 3
 EXTRA SYMMETRY OF AOS IN SYMMETRY 7:   1 1 1 1 2 3 2 3

 Eigenvalues of metric

         1 0.341E-02 0.238E-01 0.989E-01 0.989E-01 0.182E+00 0.392E+00 0.392E+00 0.428E+00
         2 0.493E-02 0.535E-01 0.190E+00 0.190E+00 0.293E+00 0.809E+00 0.809E+00 0.108E+01
         3 0.493E-02 0.535E-01 0.190E+00 0.190E+00 0.293E+00 0.809E+00 0.809E+00 0.108E+01
         4 0.989E-01 0.392E+00 0.428E+00 0.428E+00 0.117E+01 0.157E+01 0.157E+01 0.234E+01
         5 0.493E-02 0.535E-01 0.190E+00 0.190E+00 0.293E+00 0.809E+00 0.809E+00 0.108E+01
         6 0.989E-01 0.392E+00 0.428E+00 0.428E+00 0.117E+01 0.157E+01 0.157E+01 0.234E+01
         7 0.989E-01 0.392E+00 0.428E+00 0.428E+00 0.117E+01 0.157E+01 0.157E+01 0.234E+01
         8 0.190E+00 0.809E+00 0.200E+01


 Contracted 2-electron integrals neglected if value below      1.0D-12
 AO integral compression algorithm  1   Integral accuracy      1.0D-12

     6.554 MB (compressed) written to integral file ( 65.2%)


 NUMBER OF SORTED TWO-ELECTRON INTEGRALS:     665704.     BUFFER LENGTH:  32768
 NUMBER OF SEGMENTS:   1  SEGMENT LENGTH:     665704      RECORD LENGTH: 524288

 Memory used in sort:       1.22 MW

 SORT1 READ     1222209. AND WROTE      500866. INTEGRALS IN      2 RECORDS. CPU TIME:     0.03 SEC, REAL TIME:     0.04 SEC
 SORT2 READ      500866. AND WROTE      665704. INTEGRALS IN     25 RECORDS. CPU TIME:     0.07 SEC, REAL TIME:     0.09 SEC

 FILE SIZES:   FILE 1:    26.6 MBYTE,  FILE 4:     8.4 MBYTE,   TOTAL:     35.0 MBYTE

 OPERATOR DM      FOR CENTER  0  COORDINATES:    0.000000    0.000000    0.000000
 OPERATOR EKIN    FOR CENTER  0  COORDINATES:    0.000000    0.000000    0.000000
 OPERATOR POT     FOR CENTER  0  COORDINATES:    0.000000    0.000000    0.000000


 **********************************************************************************************************************************
 DATASETS  * FILE   NREC   LENGTH (MB)   RECORD NAMES
              1      20       23.51       500      610      700      900      950      970     1000      129      960     1100   
                                          VAR    BASINP    GEOM    SYMINP    ZMAT    AOBASIS   BASIS     P2S    ABASIS      S 
                                         1400     1410     1420     1200     1210     1080     1600     1650     1300     1700   
                                         EKIN       V       ECP      H0       H01     AOSYM     SMH    MOLCAS    ERIS     OPER   

 PROGRAMS   *        TOTAL       INT
 CPU TIMES  *         2.00      1.86
 REAL TIME  *        11.15 SEC
 DISK USED  *        35.29 MB      
 **********************************************************************************************************************************


 PROGRAM * RHF-SCF (OPEN SHELL)       Authors: W. Meyer, H.-J. Werner


 NUMBER OF ELECTRONS:       4+    3-    SPACE SYMMETRY=3    SPIN SYMMETRY: Doublet 
 CONVERGENCE THRESHOLDS:    1.00E-05 (Density)    1.00E-07 (Energy)
 MAX. NUMBER OF ITERATIONS:       60
 INTERPOLATION TYPE:            DIIS
 INTERPOLATION STEPS:              2 (START)      1 (STEP)
 LEVEL SHIFTS:                 -0.60 (CLOSED) -0.30 (OPEN) 


 Singly occupied orbitals:      1.3

   Atom=BR basis=ECP28MDF_GUESS    lmin=0  lmax=1

 Orbital guess generated from atomic densities. Full valence occupancy:    1   1   1   0   1   0   0   0


 Molecular orbital dump at record        4202.2

 ITERATION    DDIFF          GRAD             ENERGY        2-EL.EN.            DIPOLE MOMENTS         DIIS   ORB.
    1      0.000D+00      0.000D+00       -13.11813471     17.402079    0.00000    0.00000    0.00000    0    start
    2      0.000D+00      0.613D-02       -13.12106090     17.516115    0.00000    0.00000    0.00000    1    diag,B
    3      0.581D-02      0.174D-02       -13.12149005     17.558617    0.00000    0.00000    0.00000    2    diag,B
    4      0.168D-02      0.510D-03       -13.12153731     17.569153    0.00000    0.00000    0.00000    3    diag,B
    5      0.731D-03      0.120D-03       -13.12154017     17.570566    0.00000    0.00000    0.00000    4    diag,B
    6      0.227D-03      0.339D-04       -13.12154040     17.571032    0.00000    0.00000    0.00000    5    diag,B
    7      0.914D-04      0.781D-05       -13.12154041     17.571111    0.00000    0.00000    0.00000    6    fixocc
    8      0.199D-04      0.199D-05       -13.12154041     17.571157    0.00000    0.00000    0.00000    7    diag,B
    9      0.348D-05      0.513D-06       -13.12154041     17.571160    0.00000    0.00000    0.00000    0    orth

 Final alpha occupancy:   1   1   1   0   1   0   0   0
 Final beta  occupancy:   1   1   0   0   1   0   0   0

 !RHF STATE 1.3 Energy                -13.121540410643
 Nuclear energy                         0.00000000
 One-electron energy                  -21.90712027
 Two-electron energy                    8.78557986
 Virial quotient                       -2.85088227
 !RHF STATE 1.3 Dipole moment           0.00000000     0.00000000     0.00000000
 Dipole moment /Debye                   0.00000000     0.00000000     0.00000000
 

 !RHF expec          <1.3|EKIN|1.3>     4.602624432345
 
 !RHF expec           <1.3|POT|1.3>    -4.025273856917

 ELECTRON ORBITALS
 =================


   Orb  Occ    Energy  Couls-En    Coefficients

                                   1 1s      1 1s      1 1s      1 1s      1 1s      1 3d0     1 3d2+    1 3d0     1 3d2+    1 3d0  
                                   1 3d2+    1 3d0     1 3d2+    1 5g0     1 5g4+    1 5g2+    1 5g0     1 5g4+    1 5g2+ 

   1.1   2    -1.0195   -4.6423  0.999365 -0.001148  0.003151 -0.002781  0.001515  0.000091  0.000158 -0.000316 -0.000547  0.001826
                                 0.003163  0.001538  0.002664  0.000002  0.000005  0.000004 -0.000012 -0.000024 -0.000018

                                   1 2px     1 2px     1 2px     1 2px     1 2px     1 4f1+    1 4f3+    1 4f1+    1 4f3+    1 4f1+ 
                                   1 4f3+ 

   1.2   2    -0.4448   -3.3714  0.999961 -0.000145  0.000812 -0.001223  0.000656 -0.000756 -0.002929 -0.001345 -0.005210 -0.000589
                                -0.002282

                                   1 2py     1 2py     1 2py     1 2py     1 2py     1 4f1-    1 4f3-    1 4f1-    1 4f3-    1 4f1- 
                                   1 4f3- 

   1.3   +    -0.5176   -3.4728  1.027000 -0.002153  0.017860 -0.043903 -0.013484 -0.005269 -0.006802 -0.009042 -0.011673 -0.003155
                                -0.004073

                                   1 2pz     1 2pz     1 2pz     1 2pz     1 2pz     1 4f0     1 4f2+    1 4f0     1 4f2+    1 4f0  
                                   1 4f2+ 

   1.5   2    -0.4448   -3.3714  0.999961 -0.000145  0.000812 -0.001223  0.000656 -0.001853 -0.002392 -0.003295 -0.004254 -0.001443
                                -0.001863

 HOMO      1.2    -0.444850 =     -12.1050eV
 LUMO      2.3     0.107914 =       2.9365eV
 LUMO-HOMO         0.552764 =      15.0415eV


 **********************************************************************************************************************************
 DATASETS  * FILE   NREC   LENGTH (MB)   RECORD NAMES
              1      20       23.51       500      610      700      900      950      970     1000      129      960     1100   
                                          VAR    BASINP    GEOM    SYMINP    ZMAT    AOBASIS   BASIS     P2S    ABASIS      S 
                                         1400     1410     1420     1200     1210     1080     1600     1650     1300     1700   
                                         EKIN       V       ECP      H0       H01     AOSYM     SMH    MOLCAS    ERIS     OPER   

              2       4        2.78       700     1000      520     4202   
                                         GEOM     BASIS   MCVARS     RHF  

 PROGRAMS   *        TOTAL       RHF       INT
 CPU TIMES  *         2.06      0.06      1.86
 REAL TIME  *        11.34 SEC
 DISK USED  *        35.29 MB      
 **********************************************************************************************************************************


 PROGRAM * MULTI (Direct Multiconfiguration SCF)       Authors: P.J. Knowles, H.-J. Werner (1984)     S.T. Elbert (1988)


 Number of closed-shell orbitals:   1 (   1   0   0   0   0   0   0   0 )
 Number of active  orbitals:        3 (   0   1   1   0   1   0   0   0 )
 Number of external orbitals:      75 (  18  10  10   8  10   8   8   3 )

 State symmetry 1

 Number of electrons:     5    Spin symmetry=Doublet   Space symmetry=3
 Number of states:        1
 Number of CSFs:          1   (1 determinants, 3 intermediate states)

 State symmetry 2

 Number of electrons:     5    Spin symmetry=Doublet   Space symmetry=5
 Number of states:        1
 Number of CSFs:          1   (1 determinants, 3 intermediate states)

 State symmetry 3

 Number of electrons:     5    Spin symmetry=Doublet   Space symmetry=2
 Number of states:        1
 Number of CSFs:          1   (1 determinants, 3 intermediate states)

 Iteration controls:
             1  2  3  4  5  6  7  8  9 10 11 12 13 14 15 16 17 18 19 20 21 22 23 24 25 26 27 28 29 30 31 32 33 34 35 36 37 38 39
 DIAGCI      T  T  T  T  T  T  T  T  T  T  T  T  T  T  T  T  T  T  T  T  T  T  T  T  T  T  T  T  T  T  T  T  T  T  T  T  T  T  T
 WERNER      T  T  T  T  T  T  T  T  T  T  T  T  T  T  T  T  T  T  T  T  T  T  T  T  T  T  T  T  T  T  T  T  T  T  T  T  T  T  T
 INTERNAL    F  T  T  T  T  T  T  T  T  T  T  T  T  T  T  T  T  T  T  T  T  T  T  T  T  T  T  T  T  T  T  T  T  T  T  T  T  T  T

 Molecular orbitals read from record     4202.2  Type=RHF/CANONICAL (state 1.3)
 *** IN SYMMETRY 1 ORBITAL  1 SYMMETRY CONTAMINATION OF 0.102D-01 HAS BEEN REMOVED

 EXTRA SYMMETRY OF MOS IN SYMMETRY 1:   1 1 3 2 1 3 2 5 4 6   3 2 1 5 4 6 3 2 1
 *** IN SYMMETRY 2 ORBITAL  1 SYMMETRY CONTAMINATION OF 0.129D-01 HAS BEEN REMOVED
 EXTRA SYMMETRY OF MOS IN SYMMETRY 2:   1 1 3 2 1 3 2 1 3 2   1
 *** IN SYMMETRY 3 ORBITAL  1 SYMMETRY CONTAMINATION OF 0.350D-01 HAS BEEN REMOVED
 EXTRA SYMMETRY OF MOS IN SYMMETRY 3:   1 1 1 3 2 3 2 1 3 2   1
 EXTRA SYMMETRY OF MOS IN SYMMETRY 4:   1 1 3 2 1 3 2 1
 *** IN SYMMETRY 5 ORBITAL  1 SYMMETRY CONTAMINATION OF 0.148D-01 HAS BEEN REMOVED
 EXTRA SYMMETRY OF MOS IN SYMMETRY 5:   1 1 3 2 1 3 2 1 3 2   1
 EXTRA SYMMETRY OF MOS IN SYMMETRY 6:   1 1 3 2 1 3 2 1
 EXTRA SYMMETRY OF MOS IN SYMMETRY 7:   1 1 2 3 1 2 3 1

 Wavefunction dump at record             5202.2

 Convergence thresholds  0.10E-01 (gradient)  0.10E-05 (energy)  0.10E-02 (step length)

 Weight factors for state symmetry  1:    0.33333
 Weight factors for state symmetry  2:    0.33333
 Weight factors for state symmetry  3:    0.33333

 Number of orbital rotations:       48   (     0 Core/Active     18 Core/Virtual   0 Active/Active     30 Active/Virtual)
 Total number of variables:         51


 ITER. MIC  NCI  NEG     ENERGY(VAR)     ENERGY(PROJ)   ENERGY CHANGE     GRAD(0)  GRAD(ORB)   GRAD(CI)     STEP       TIME

   1   24   12    0     -13.11885992     -13.11961571   -0.00075579    0.02883047 0.00000000 0.00000000  0.30D-01      0.02
   2   13   12    0     -13.11961590     -13.11961590   -0.00000000    0.00008797 0.00000000 0.00000000  0.59D-04      0.02

 ** WVFN ****  CONVERGENCE REACHED, FINAL GRADIENT:  0.14D-08



 Results for state 1.3
 =====================

 !MCSCF STATE 1.3 Energy              -13.119615899805
 Nuclear energy                         0.00000000
 Kinetic energy                         4.60066913
 One electron energy                  -21.90904757
 Two electron energy                    8.78943167
 Virial ratio                           3.85167560

 !MCSCF STATE 1.3 Dipole moment         0.00000000     0.00000000     0.00000000
 Dipole moment /Debye                   0.00000000     0.00000000     0.00000000



 Results for state 1.5
 =====================

 !MCSCF STATE 1.5 Energy              -13.119615899804
 Nuclear energy                         0.00000000
 Kinetic energy                         4.60066913
 One electron energy                  -21.90904757
 Two electron energy                    8.78943167
 Virial ratio                           3.85167560

 !MCSCF STATE 1.5 Dipole moment         0.00000000     0.00000000     0.00000000
 Dipole moment /Debye                   0.00000000     0.00000000     0.00000000



 Results for state 1.2
 =====================

 !MCSCF STATE 1.2 Energy              -13.119615899804
 Nuclear energy                         0.00000000
 Kinetic energy                         4.60066913
 One electron energy                  -21.90904757
 Two electron energy                    8.78943167
 Virial ratio                           3.85167560

 !MCSCF STATE 1.2 Dipole moment         0.00000000     0.00000000     0.00000000
 Dipole moment /Debye                   0.00000000     0.00000000     0.00000000

 State-averaged charge density matrix saved on record  5202.2 (density set 1)

 !MCSCF expec        <1.3|EKIN|1.3>     4.600669131806
 !MCSCF expec        <1.5|EKIN|1.5>     4.600669131867
 !MCSCF expec        <1.2|EKIN|1.2>     4.600669131867

 !MCSCF expec         <1.3|POT|1.3>    -4.025267135651
 !MCSCF expec         <1.5|POT|1.5>    -4.025267135672
 !MCSCF expec         <1.2|POT|1.2>    -4.025267135672


 NATURAL ORBITALS (state averaged)
 =================================

   Orb     Occ        Energy       Coefficients

                                   1 1s      1 1s      1 1s      1 1s      1 1s      1 3d0     1 3d2+    1 3d0     1 3d2+    1 3d0  
                                   1 3d2+    1 3d0     1 3d2+    1 5g0     1 5g4+    1 5g2+    1 5g0     1 5g4+    1 5g2+ 

   1.1  2.00000    -1.019466     0.999343 -0.001110  0.002984 -0.002600  0.001511  0.000000  0.000000  0.000000  0.000000  0.000000
                                 0.000000  0.000000  0.000000  0.000000  0.000000  0.000000  0.000000  0.000000  0.000000

                                   1 2px     1 2px     1 2px     1 2px     1 2px     1 4f1+    1 4f3+    1 4f1+    1 4f3+    1 4f1+ 
                                   1 4f3+ 

   1.2  1.66667    -0.389799     1.005274 -0.000534  0.004091 -0.009017 -0.002603  0.000000  0.000000  0.000000  0.000000  0.000000
                                 0.000000

                                   1 2py     1 2py     1 2py     1 2py     1 2py     1 4f1-    1 4f3-    1 4f1-    1 4f3-    1 4f1- 
                                   1 4f3- 

   1.3  1.66667    -0.389799     1.005274 -0.000534  0.004091 -0.009017 -0.002603  0.000000  0.000000  0.000000  0.000000  0.000000
                                 0.000000

                                   1 2pz     1 2pz     1 2pz     1 2pz     1 2pz     1 4f0     1 4f2+    1 4f0     1 4f2+    1 4f0  
                                   1 4f2+ 

   1.5  1.66667    -0.389799     1.005274 -0.000534  0.004091 -0.009017 -0.002603  0.000000  0.000000  0.000000  0.000000  0.000000
                                 0.000000
 

 EXTRA SYMMETRY OF MOS IN SYMMETRY 1:   1 1 2 3 1 2 3 6 4 5   3 2 1 4 6 5 2 3 1
 EXTRA SYMMETRY OF MOS IN SYMMETRY 2:   1 1 3 2 1 3 2 1 2 3   1
 EXTRA SYMMETRY OF MOS IN SYMMETRY 3:   1 1 3 2 1 3 2 1 2 3   1
 EXTRA SYMMETRY OF MOS IN SYMMETRY 4:   1 1 2 3 1 2 3 1
 EXTRA SYMMETRY OF MOS IN SYMMETRY 5:   1 1 3 2 1 3 2 1 2 3   1
 EXTRA SYMMETRY OF MOS IN SYMMETRY 6:   1 1 3 2 1 2 3 1
 EXTRA SYMMETRY OF MOS IN SYMMETRY 7:   1 1 3 2 1 3 2 1

 Natural orbital dump (state averaged) at molpro section  5202.2    (Orbital set 2)


 CI vector for state symmetry 1
 ==============================

 2 a 2           1.0000000

 TOTAL ENERGIES                       -13.11961590

 CI vector for state symmetry 2
 ==============================

 2 2 a           1.0000000

 TOTAL ENERGIES                       -13.11961590

 CI vector for state symmetry 3
 ==============================

 a 2 2           1.0000000

 TOTAL ENERGIES                       -13.11961590



 **********************************************************************************************************************************
 DATASETS  * FILE   NREC   LENGTH (MB)   RECORD NAMES
              1      21       23.63       500      610      700      900      950      970     1000      129      960     1100   
                                          VAR    BASINP    GEOM    SYMINP    ZMAT    AOBASIS   BASIS     P2S    ABASIS      S 
                                         1400     1410     1420     1200     1210     1080     1600     1650     1300     1700   
                                         EKIN       V       ECP      H0       H01     AOSYM     SMH    MOLCAS    ERIS     OPER   
                                         1380   
                                         JKOP   

              2       5        5.31       700     1000      520     4202     5202   
                                         GEOM     BASIS   MCVARS     RHF     MCSCF   

 PROGRAMS   *        TOTAL     MULTI       RHF       INT
 CPU TIMES  *         2.11      0.05      0.06      1.86
 REAL TIME  *        12.36 SEC
 DISK USED  *        38.47 MB      
 **********************************************************************************************************************************


 PROGRAM * RHF-SCF (OPEN SHELL)       Authors: W. Meyer, H.-J. Werner


 NUMBER OF ELECTRONS:       4+    3-    SPACE SYMMETRY=3    SPIN SYMMETRY: Doublet 
 CONVERGENCE THRESHOLDS:    1.00E-05 (Density)    1.00E-07 (Energy)
 MAX. NUMBER OF ITERATIONS:        0
 INTERPOLATION TYPE:            DIIS
 INTERPOLATION STEPS:              2 (START)      1 (STEP)
 LEVEL SHIFTS:                 -0.60 (CLOSED) -0.30 (OPEN) 


 Singly occupied orbitals:      1.3
 Molecular orbitals read from record     5202.2  Type=MCSCF/NATURAL (state averaged)

 Molecular orbital dump at record        2101.2

 ITERATION    DDIFF          GRAD             ENERGY        2-EL.EN.            DIPOLE MOMENTS         DIIS   ORB.
    1      0.000D+00      0.000D+00       -13.11961590     17.578863    0.00000    0.00000    0.00000    0    start

 Final alpha occupancy:   1   1   1   0   1   0   0   0
 Final beta  occupancy:   1   1   0   0   1   0   0   0

 !RHF STATE 1.3 Energy                -13.119615899805
 Nuclear energy                         0.00000000
 One-electron energy                  -21.90904757
 Two-electron energy                    8.78943167
 Virial quotient                       -2.85167560
 !RHF STATE 1.3 Dipole moment           0.00000000     0.00000000     0.00000000
 Dipole moment /Debye                   0.00000000     0.00000000     0.00000000
 

 !RHF expec          <1.3|EKIN|1.3>     4.600669131806
 
 !RHF expec           <1.3|POT|1.3>    -4.025267135651

 ELECTRON ORBITALS
 =================


   Orb  Occ    Energy  Couls-En    Coefficients

                                   1 1s      1 1s      1 1s      1 1s      1 1s      1 3d0     1 3d2+    1 3d0     1 3d2+    1 3d0  
                                   1 3d2+    1 3d0     1 3d2+    1 5g0     1 5g4+    1 5g2+    1 5g0     1 5g4+    1 5g2+ 

   1.1   2    -1.0195   -4.6423  0.999343 -0.001110  0.002984 -0.002600  0.001511  0.000000  0.000000  0.000000  0.000000  0.000000
                                 0.000000  0.000000  0.000000  0.000000  0.000000  0.000000  0.000000  0.000000  0.000000

                                   1 2px     1 2px     1 2px     1 2px     1 2px     1 4f1+    1 4f3+    1 4f1+    1 4f3+    1 4f1+ 
                                   1 4f3+ 

   1.2   2    -0.3898   -3.3225  1.005274 -0.000534  0.004091 -0.009017 -0.002603  0.000000  0.000000  0.000000  0.000000  0.000000
                                 0.000000

                                   1 2py     1 2py     1 2py     1 2py     1 2py     1 4f1-    1 4f3-    1 4f1-    1 4f3-    1 4f1- 
                                   1 4f3- 

   1.3   +    -0.3898   -3.3225  1.005274 -0.000534  0.004091 -0.009017 -0.002603  0.000000  0.000000  0.000000  0.000000  0.000000
                                 0.000000

                                   1 2pz     1 2pz     1 2pz     1 2pz     1 2pz     1 4f0     1 4f2+    1 4f0     1 4f2+    1 4f0  
                                   1 4f2+ 

   1.5   2    -0.3898   -3.3225  1.005274 -0.000534  0.004091 -0.009017 -0.002603  0.000000  0.000000  0.000000  0.000000  0.000000
                                 0.000000

 HOMO      1.2    -0.389799 =     -10.6070eV
 LUMO      2.2     0.115420 =       3.1407eV
 LUMO-HOMO         0.505219 =      13.7477eV


 **********************************************************************************************************************************
 DATASETS  * FILE   NREC   LENGTH (MB)   RECORD NAMES
              1      21       23.63       500      610      700      900      950      970     1000      129      960     1100   
                                          VAR    BASINP    GEOM    SYMINP    ZMAT    AOBASIS   BASIS     P2S    ABASIS      S 
                                         1400     1410     1420     1200     1210     1080     1600     1650     1300     1700   
                                         EKIN       V       ECP      H0       H01     AOSYM     SMH    MOLCAS    ERIS     OPER   
                                         1380   
                                         JKOP   

              2       6        7.84       700     1000      520     4202     5202     2101   
                                         GEOM     BASIS   MCVARS     RHF     MCSCF     RHF  

 PROGRAMS   *        TOTAL       RHF     MULTI       RHF       INT
 CPU TIMES  *         2.12      0.01      0.05      0.06      1.86
 REAL TIME  *        12.59 SEC
 DISK USED  *        38.47 MB      
 **********************************************************************************************************************************
 SETTING SCF(I)         =       -13.11961590  AU                              
 SETTING _CC_NORM_MAX   =         2.00000000                                  


 PROGRAM * CCSD (Restricted open-shell coupled cluster)     Authors: C. Hampel, H.-J. Werner, 1991, M. Deegan, P.J. Knowles, 1992


 Convergence thresholds:  THRVAR = 1.00D-08  THRDEN = 1.00D-06

 CCSD(T)     terms to be evaluated (factor= 1.000)


 Number of closed-shell orbitals:   3 (   1   1   0   0   1   0   0   0 )
 Number of active  orbitals:        1 (   0   0   1   0   0   0   0   0 )
 Number of external orbitals:      75 (  18  10  10   8  10   8   8   3 )

 Memory could be reduced to 0.95 Mwords without degradation in triples

 Number of N-1 electron functions:               7
 Number of N-2 electron functions:              21
 Number of singly external CSFs:                87
 Number of doubly external CSFs:             12282
 Total number of CSFs:                       12369

 Molecular orbitals read from record     2101.2  Type=RHF/CANONICAL (state 1.3)

 Integral transformation finished. Total CPU:   0.00 sec, npass=  1  Memory used:   0.17 MW

 Starting RMP2 calculation

 Wavefunction is spin-projected

 ITER.      SQ.NORM     CORR.ENERGY   TOTAL ENERGY   ENERGY CHANGE        DEN1      VAR(S)    VAR(P)  DIIS     TIME
   1      1.05953663    -0.16374172   -13.28335762    -0.16374172    -0.00079354  0.25D-04  0.33D-03  1  1     0.01
   2      1.06039025    -0.16460664   -13.28422254    -0.00086492    -0.00000092  0.13D-06  0.37D-06  2  2     0.01
   3      1.06040886    -0.16461630   -13.28423220    -0.00000966    -0.00000000  0.16D-08  0.58D-09  3  3     0.01
   4      1.06040925    -0.16461638   -13.28423228    -0.00000008    -0.00000000  0.14D-10  0.17D-11  4  4     0.01

 Norm of t1 vector:      0.04957966      S-energy:    -0.00421227      T1 diagnostic:  0.00886360
 Norm of t2 vector:      0.24073037      P-energy:    -0.16040411
                                         Alpha-Beta:  -0.12735991
                                         Alpha-Alpha: -0.02231009
                                         Beta-Beta:   -0.01073411

 Spin contamination <S**2-Sz**2-Sz>     0.00000000
  Reference energy                    -13.119615899805
  RHF-RMP2 correlation energy          -0.164616384555
 !RHF-RMP2 energy                     -13.284232284360
 (NB above energy spin projected)

 Starting RCCSD calculation

 ITER.      SQ.NORM     CORR.ENERGY   TOTAL ENERGY   ENERGY CHANGE        DEN1      VAR(S)    VAR(P)  DIIS     TIME
   1      1.06935696    -0.17554514   -13.29516104    -0.17554514    -0.00499681  0.31D-03  0.16D-02  1  1     0.02
   2      1.07551250    -0.18114404   -13.30075994    -0.00559890    -0.00013046  0.13D-04  0.44D-04  2  2     0.03
   3      1.07644421    -0.18158434   -13.30120024    -0.00044031    -0.00000567  0.89D-06  0.21D-05  3  3     0.04
   4      1.07664654    -0.18165964   -13.30127554    -0.00007530    -0.00000030  0.70D-07  0.11D-06  4  4     0.06
   5      1.07667870    -0.18166711   -13.30128301    -0.00000746    -0.00000002  0.78D-08  0.79D-08  5  5     0.08
   6      1.07668306    -0.18166690   -13.30128280     0.00000020    -0.00000000  0.69D-09  0.62D-09  6  6     0.09

 Norm of t1 vector:      0.06560887      S-energy:    -0.00529703      T1 diagnostic:  0.01258162
                                                                       D1 diagnostic:  0.02771036
 Norm of t2 vector:      0.26903259      P-energy:    -0.17636988
                                         Alpha-Beta:  -0.14403295
                                         Alpha-Alpha: -0.02179719
                                         Beta-Beta:   -0.01053974

 Spin contamination <S**2-Sz**2-Sz>     0.00000000

 Memory could be reduced to 0.94 Mwords without degradation in triples
 

 RESULTS
 =======

  Reference energy                    -13.119615899805
  RCCSD singles energy                 -0.005297025088
  RCCSD pair energy                    -0.176369879876
  RCCSD correlation energy             -0.181666904964
  Triples (T) contribution             -0.006253475639
  Total correlation energy             -0.187920380603
 
  RHF-RCCSD energy                    -13.301282804769
  RHF-RCCSD[T] energy                 -13.307541299507
  RHF-RCCSD-T energy                  -13.307523459694
 !RHF-RCCSD(T) energy                 -13.307536280408

 Program statistics:

 Available memory in ccsd:              7999999732
 Min. memory needed in ccsd:                 58356
 Max. memory used in ccsd:                   70506
 Max. memory used in cckext:                 86669 ( 6 integral passes)
 Max. memory used in cckint:                165397 ( 1 integral passes)



 **********************************************************************************************************************************
 DATASETS  * FILE   NREC   LENGTH (MB)   RECORD NAMES
              1      21       23.63       500      610      700      900      950      970     1000      129      960     1100   
                                          VAR    BASINP    GEOM    SYMINP    ZMAT    AOBASIS   BASIS     P2S    ABASIS      S 
                                         1400     1410     1420     1200     1210     1080     1600     1650     1300     1700   
                                         EKIN       V       ECP      H0       H01     AOSYM     SMH    MOLCAS    ERIS     OPER   
                                         1380   
                                         JKOP   

              2       6        7.84       700     1000      520     4202     5202     2101   
                                         GEOM     BASIS   MCVARS     RHF     MCSCF     RHF  

 PROGRAMS   *        TOTAL  RCCSD(T)       RHF     MULTI       RHF       INT
 CPU TIMES  *         2.30      0.17      0.01      0.05      0.06      1.86
 REAL TIME  *        13.68 SEC
 DISK USED  *        39.11 MB      
 **********************************************************************************************************************************
 SETTING POSTHF(I)      =       -13.30753628  AU                              
                                                                                                                                                                                                                                                                

        SCF            POSTHF       EKIN          POT
    -13.11961590   -13.30753628   4.60066913   -4.02526714
                                                  

 RCCSD(T)/USERDEF energy=    -13.307536280408

        RCCSD(T)        RHF-SCF         MULTI           RHF-SCF 
    -13.30753628    -13.11961590    -13.11961590    -13.12154041
 **********************************************************************************************************************************
 Molpro calculation terminated
 Variable memory released
