TACC:  Starting up job 2701435 
TACC:  Starting parallel tasks... 
  Input file(s): O.log.qmc.in-wfj.xml 

=====================================================
                    QMCPACK 3.5.0 

       (c) Copyright 2003-  QMCPACK developers

                    Please cite:
 J. Kim et al. J. Phys. Cond. Mat. 30 195901 (2018)
      https://doi.org/10.1088/1361-648X/aab9c3

  Git branch: develop
  Last git commit: ca320f40410f5ef17c38db08d5c54848ef64bfe1
  Last git commit date: Tue Dec 18 15:37:17 2018 +0800
  Last git commit subject: Merge pull request #764 from Paul-St-Young/dat-h5
=====================================================
  Global options 

  MPI Nodes             = 1024
  MPI Nodes per group   = 1024
  MPI Group ID          = 0
  OMP 1st level threads = 1
  OMP nested threading disabled or only 1 thread on the 2nd level

  Precision used in this calculation, see definitions in the manual:
  Base precision      = double
  Full precision      = double

  Structure-of-arrays (SoA) optimization enabled

  Input XML = O.log.qmc.in-wfj.xml

  Project = O.log
  date    = 2018-12-28 15:43:54 CST
  host    = c456-042.stampede2.tacc.utexas.edu

 Random Number
 -------------
  Offset for the random number seeds based on time: 282

  Range of prime numbers to use as seeds over processors and threads = 1861-10729


 Particle Set 
 ------------
  Name: ion0
  All the species have the same mass 1
  Particle set size: 1

 Particle Set 
 ------------
  Name: e
  All the species have the same mass 1
  Particle set size: 6

 Wavefunction setup: 
 ------------------- 
  Name: psi0
  LCAO: SoaAtomicBasisSet<MultiQuintic,0>

  Distance table for similar particles (A-A):
    source/target: e
    Using structure-of-arrays (SoA) data layout
    Distance computations use open boundary conditions in 3D.


  Distance table for dissimilar particles (A-B):
    source: ion0  target: e
    Using structure-of-arrays (SoA) data layout
    Distance computations use open boundary conditions in 3D.

Reading BasisSet from HDF5 file:O.log.orbs.h5
<input node="atomicBasisSet" name="Gaussian" expandYlm="gaussian" angular="cartesian" elementType="O" normalized="no" type="Numerical" expM="0" />
  AO BasisSet for O
   Angular momentum expanded in cartesian functions x^lx y^ly z^lz according to Gamess
   Grid is created by the input paremters in h5
    Using log grid ri = 1e-06 rf = 100 npts = 1001
   R(n,l,m,s) 0 0 0 0
   R(n,l,m,s) 1 0 0 0
   R(n,l,m,s) 2 1 0 0
   R(n,l,m,s) 3 1 0 0
   R(n,l,m,s) 4 2 0 0
Expanding Ylm (angular function) according to Gamess using cartesian gaussians
Adding 1 cartesian gaussian orbitals for l= 0
Adding 1 cartesian gaussian orbitals for l= 0
Adding 3 cartesian gaussian orbitals for l= 1
Adding 3 cartesian gaussian orbitals for l= 1
Adding 6 cartesian gaussian orbitals for l= 2
   Maximum Angular Momentum  = 2
   Number of Radial functors = 5
   Basis size                = 14

  Created SPOSet builder named 'LCAOBSet' of type molecularorbital
Reuse SPOSetBuilder "LCAOBSet" type MolecularOrbital
  Building SPOSet '' with '' basis set.
Reuse SPOSetBuilder "LCAOBSet" type MolecularOrbital
  Building SPOSet '' with '' basis set.
  Creating a determinant updet group=0 sposet=updet
  Reusing a SPO set updet
Using DiracDeterminant 
Using rank-1 Sherman-Morrison Fahy update

  Creating a determinant downdet group=1 sposet=downdet
  Reusing a SPO set downdet
Using DiracDeterminant 
Using rank-1 Sherman-Morrison Fahy update

  FermionWF = SlaterDet
  RadialJastrowBuilder adds a functor with cusp = -0.25
 size = 10 parameters 
 cusp = -0.25
 rcut = 6.5
Parameter     Name      Value
uu_0 0.227571 1 1  ON 0
uu_1 0.106644 1 1  ON 1
uu_2 0.0138459 1 1  ON 2
uu_3 -0.0509922 1 1  ON 3
uu_4 -0.0926894 1 1  ON 4
uu_5 -0.115171 1 1  ON 5
uu_6 -0.121363 1 1  ON 6
uu_7 -0.114209 1 1  ON 7
uu_8 -0.0930118 1 1  ON 8
uu_9 -0.0601238 1 1  ON 9
  RadialJastrowBuilder adds a functor with cusp = -0.5
 size = 10 parameters 
 cusp = -0.5
 rcut = 6.5
Parameter     Name      Value
ud_0 0.486202 1 1  ON 0
ud_1 0.267928 1 1  ON 1
ud_2 0.135431 1 1  ON 2
ud_3 0.0481757 1 1  ON 3
ud_4 -0.0104845 1 1  ON 4
ud_5 -0.0481218 1 1  ON 5
ud_6 -0.0702469 1 1  ON 6
ud_7 -0.07923 1 1  ON 7
ud_8 -0.0732819 1 1  ON 8
ud_9 -0.0570177 1 1  ON 9
 size = 10 parameters 
 cusp = 0
 rcut = 6.5
Parameter     Name      Value
eO_0 -0.6873 1 1  ON 0
eO_1 -0.550242 1 1  ON 1
eO_2 -0.293802 1 1  ON 2
eO_3 -0.0579564 1 1  ON 3
eO_4 0.119505 1 1  ON 4
eO_5 0.245252 1 1  ON 5
eO_6 0.321411 1 1  ON 6
eO_7 0.348679 1 1  ON 7
eO_8 0.31428 1 1  ON 8
eO_9 0.205857 1 1  ON 9
Expected 26 parameters, but found 0 in PolynomialFunctor3D.
Parameter     Name      Value
uuO_0 0 1 1  ON 0
uuO_1 0 1 1  ON 1
uuO_2 0 1 1  ON 2
uuO_3 0 1 1  ON 3
uuO_4 0 1 1  ON 4
uuO_5 0 1 1  ON 5
uuO_6 0 1 1  ON 6
uuO_7 0 1 1  ON 7
uuO_8 0 1 1  ON 8
uuO_9 0 1 1  ON 9
uuO_10 0 1 1  ON 10
uuO_11 0 1 1  ON 11
uuO_12 0 1 1  ON 12
uuO_13 0 1 1  ON 13
uuO_14 0 1 1  ON 14
uuO_15 0 1 1  ON 15
uuO_16 0 1 1  ON 16
uuO_17 0 1 1  ON 17
uuO_18 0 1 1  ON 18
uuO_19 0 1 1  ON 19
uuO_20 0 1 1  ON 20
uuO_21 0 1 1  ON 21
uuO_22 0 1 1  ON 22
uuO_23 0 1 1  ON 23
uuO_24 0 1 1  ON 24
uuO_25 0 1 1  ON 25
Expected 26 parameters, but found 0 in PolynomialFunctor3D.
Parameter     Name      Value
udO_0 0 1 1  ON 0
udO_1 0 1 1  ON 1
udO_2 0 1 1  ON 2
udO_3 0 1 1  ON 3
udO_4 0 1 1  ON 4
udO_5 0 1 1  ON 5
udO_6 0 1 1  ON 6
udO_7 0 1 1  ON 7
udO_8 0 1 1  ON 8
udO_9 0 1 1  ON 9
udO_10 0 1 1  ON 10
udO_11 0 1 1  ON 11
udO_12 0 1 1  ON 12
udO_13 0 1 1  ON 13
udO_14 0 1 1  ON 14
udO_15 0 1 1  ON 15
udO_16 0 1 1  ON 16
udO_17 0 1 1  ON 17
udO_18 0 1 1  ON 18
udO_19 0 1 1  ON 19
udO_20 0 1 1  ON 20
udO_21 0 1 1  ON 21
udO_22 0 1 1  ON 22
udO_23 0 1 1  ON 23
udO_24 0 1 1  ON 24
udO_25 0 1 1  ON 25
  QMCHamiltonian::addOperator Kinetic to H, physical Hamiltonian 
  QMCHamiltonian::addOperator ElecElec to H, physical Hamiltonian 
QMCHamiltonian::addOperatorType added type coulomb named ElecElec
  CoulombAA for ion0 is not created.  Number of particles == 1 and nonPeriodic

  ECPotential builder for pseudopotential 

  Adding pseudopotential for O
   Linear grid  ri=0 rf=10 npts = 10001
    ECPComponentBuilder::buildSemiLocalAndLocal 
    Assuming Hartree unit
   Number of angular momentum channels 2
   Maximum angular momentum channel 1
   Creating a Linear Grid Rmax=1.075
  Using global grid with delta = 0.001
   Making L=1 a local potential with a radial cutoff of 9.999
    Non-local pseudopotential parameters
    Maximum angular mementum = 0
    Number of non-local channels = 1
       l(0)=0
    Cutoff radius = 1.075
    Spherical grids and weights: 
                        1                 0                 0       0.08333333333
                       -1   1.224646799e-16                 0       0.08333333333
             0.4472135955       0.894427191                 0       0.08333333333
            -0.4472135955      0.7236067977      0.5257311121       0.08333333333
             0.4472135955      0.2763932023      0.8506508084       0.08333333333
            -0.4472135955     -0.2763932023      0.8506508084       0.08333333333
             0.4472135955     -0.7236067977      0.5257311121       0.08333333333
            -0.4472135955      -0.894427191   1.095357397e-16       0.08333333333
             0.4472135955     -0.7236067977     -0.5257311121       0.08333333333
            -0.4472135955     -0.2763932023     -0.8506508084       0.08333333333
             0.4472135955      0.2763932023     -0.8506508084       0.08333333333
            -0.4472135955      0.7236067977     -0.5257311121       0.08333333333
    Maximum cutoff radius 1.075
  QMCHamiltonian::addOperator LocalECP to H, physical Hamiltonian 

  Using NonLocalECP potential 
    Maximum grid on a sphere for NonLocalECPotential: 12
  QMCHamiltonian::addOperator NonLocalECP to H, physical Hamiltonian 
QMCHamiltonian::addOperatorType added type pseudo named PseudoPot

  QMCHamiltonian::add2WalkerProperty added
    4 to P::PropertyList 
    0 to P::Collectables 
    starting Index of the observables in P::PropertyList = 9
ParticleSetPool::randomize 
<init source="ion0" target="e">
</init>
  Initialization Execution time = 1.369 secs
=========================================================
 Summary of QMC systems 
=========================================================
ParticleSetPool has: 

  ParticleSet e : 0 4 6 

    6

    u  8.3492103456e-01 -1.3283436885e+00 -1.3206810530e+00
    u  1.6889742634e-03 -1.2963600274e+00 -1.1578163586e-01
    u  2.3112544696e+00 -1.9132115194e+00 -1.1958786836e+00
    u  2.3783958121e-01  1.5109568854e+00  2.1002727269e+00
    d -7.6334839010e-01  2.3651431267e+00  2.0705036393e+00
    d  4.2084778775e-01  6.5358645181e-01  1.7622435497e+00

  ParticleSet ion0 : 0 1 

    1

    O  0.0000000000e+00  0.0000000000e+00  0.0000000000e+00

  Hamiltonian h0
  Kinetic         Kinetic energy
  ElecElec        CoulombAA source/target e

  LocalECP        LocalECPotential: ion0
  NonLocalECP     NonLocalECPotential: ion0

=========================================================
  Start VMC
  File Root O.log.s000 append = no 
=========================================================
  Adding 1 walkers to 0 existing sets
  Total number of walkers: 1.0240000000e+03
  Total weight: 1.0240000000e+03
  Resetting Properties of the walkers 1 x 13

<vmc function="put">
  qmc_counter=0  my_counter=0
  time step      = 1.5000000000e-01
  blocks         = 200
  steps          = 1
  substeps       = 5
  current        = 0
  target samples = 1.0240000000e+03
  walkers/mpi    = 1

  stepsbetweensamples = 200
<parameter name="blocks" condition="int">200</parameter>
<parameter name="blocks_between_recompute" condition="int">0</parameter>
<parameter name="check_properties" condition="int">100</parameter>
<parameter name="checkproperties" condition="int">100</parameter>
<parameter name="current" condition="int">0</parameter>
<parameter name="dmcwalkersperthread" condition="real">1.0000000000e+00</parameter>
<parameter name="maxcpusecs" condition="real">3.6000000000e+05</parameter>
<parameter name="record_configs" condition="int">0</parameter>
<parameter name="record_walkers" condition="int">200</parameter>
<parameter name="recordconfigs" condition="int">0</parameter>
<parameter name="recordwalkers" condition="int">200</parameter>
<parameter name="rewind" condition="int">0</parameter>
<parameter name="samples" condition="real">1.0240000000e+03</parameter>
<parameter name="samplesperthread" condition="real">1.0000000000e+00</parameter>
<parameter name="steps" condition="int">1</parameter>
<parameter name="stepsbetweensamples" condition="int">200</parameter>
<parameter name="store_configs" condition="int">0</parameter>
<parameter name="storeconfigs" condition="int">0</parameter>
<parameter name="sub_steps" condition="int">5</parameter>
<parameter name="substeps" condition="int">5</parameter>
<parameter name="tau" condition="au">1.5000000000e-01</parameter>
<parameter name="time_step" condition="au">1.5000000000e-01</parameter>
<parameter name="timestep" condition="au">1.5000000000e-01</parameter>
<parameter name="use_drift" condition="string">no</parameter>
<parameter name="usedrift" condition="string">no</parameter>
<parameter name="walkers" condition="int">1</parameter>
<parameter name="warmup_steps" condition="int">100</parameter>
<parameter name="warmupsteps" condition="int">100</parameter>
  DumpConfig==false Nothing (configurations, state) will be saved.
  Walker Samples are dumped every 200 steps.
</vmc>
  Initial partition of walkers 0 1 

  Using Particle by Particle moves
  Walker moves without drift
  Total Sample Size   =1024
  Walker distribution on root = 0 1 
  Using Locality Approximation
===== Memory Usage after the buffer registration =====
Available memory on node 0, free + buffers : 83696 MB
Memory footprint by rank 0 on node 0       : 70 MB
==================================================
  Anonymous Buffer size per walker : 2336 Bytes.
MEMORY increase 0 MB VMC::resetRun
====================================================
  SimpleFixedNodeBranch::finalize after a VMC block
    QMC counter        = 0
    time step          = 0.15
    reference energy   = -15.8282
    reference variance = 0.274659
====================================================
  QMC Execution time = 1.3570e+00 secs 
Loop execution max-interations = 20

=========================================================
  Start QMCFixedSampleLinearOptimize
  File Root O.log.s001 append = no 
=========================================================
  Skip QMCDriver::putQMCInfo 
  Resetting Properties of the walkers 1 x 13

=========================================================
  Start VMC
  File Root O.log.s001 append = no 
=========================================================
  Using the current 1 walkers.
  Total number of walkers: 1.0240e+03
  Total weight: 1.0240e+03
  Resetting Properties of the walkers 1 x 13

<vmc function="put">
  qmc_counter=0  my_counter=0
  time step      = 1.5000e-01
  blocks         = 300
  steps          = 2
  substeps       = 5
  current        = 0
  target samples = 5.1200e+05
  walkers/mpi    = 1

  stepsbetweensamples = 1
<parameter name="blocks" condition="int">300</parameter>
<parameter name="blocks_between_recompute" condition="int">0</parameter>
<parameter name="check_properties" condition="int">100</parameter>
<parameter name="checkproperties" condition="int">100</parameter>
<parameter name="current" condition="int">0</parameter>
<parameter name="dmcwalkersperthread" condition="real">5.0000e+02</parameter>
<parameter name="maxcpusecs" condition="real">3.6000e+05</parameter>
<parameter name="record_configs" condition="int">0</parameter>
<parameter name="record_walkers" condition="int">1</parameter>
<parameter name="recordconfigs" condition="int">0</parameter>
<parameter name="recordwalkers" condition="int">1</parameter>
<parameter name="rewind" condition="int">0</parameter>
<parameter name="samples" condition="real">5.1200e+05</parameter>
<parameter name="samplesperthread" condition="real">5.0000e+02</parameter>
<parameter name="steps" condition="int">2</parameter>
<parameter name="stepsbetweensamples" condition="int">1</parameter>
<parameter name="store_configs" condition="int">0</parameter>
<parameter name="storeconfigs" condition="int">0</parameter>
<parameter name="sub_steps" condition="int">5</parameter>
<parameter name="substeps" condition="int">5</parameter>
<parameter name="tau" condition="au">1.5000e-01</parameter>
<parameter name="time_step" condition="au">1.5000e-01</parameter>
<parameter name="timestep" condition="au">1.5000e-01</parameter>
<parameter name="use_drift" condition="string">no</parameter>
<parameter name="usedrift" condition="string">no</parameter>
<parameter name="walkers" condition="int">1</parameter>
<parameter name="warmup_steps" condition="int">0</parameter>
<parameter name="warmupsteps" condition="int">0</parameter>
  DumpConfig==false Nothing (configurations, state) will be saved.
  Walker Samples are dumped every 1 steps.
</vmc>
    Restarting, cummulative properties:
      energy     = -1.5828e+01
      variance   = 0.0000e+00
      r2accepted = 1.0000e-10
      r2proposed = 1.0000e-10
 Using QMCCostFunction::QMCCostFunction
  EstimatorManagerBase::add replace LocalEnergy estimator.
<optimization-report>
<vmc stage="main" blocks="300">
  Cannot make clones again. Use existing 1 clones
  Initial partition of walkers 0 1 

  Using Particle by Particle moves
  Walker moves without drift
  Total Sample Size   =512000
  Walker distribution on root = 0 1 
  Using Locality Approximation
===== Memory Usage after the buffer registration =====
Available memory on node 0, free + buffers : 83672 MB
Memory footprint by rank 0 on node 0       : 71 MB
==================================================
  Anonymous Buffer size per walker : 2336 Bytes.
MEMORY increase 0 MB VMC::resetRun
====================================================
  SimpleFixedNodeBranch::finalize after a VMC block
    QMC counter        = 1
    time step          = 0.15
    reference energy   = -15.8482
    reference variance = 0.210958
====================================================
  Execution time = 2.9361e+00
</vmc>
<opt stage="setup">
  <log>
   Reading configurations from h5FileRoot O.log.s001
  QMCCostFunction is created with 1 threads.
  Using Nonlocal PP in Opt: NonLocalECP
   Number of samples loaded to each thread : 500 
  VMC Eavg = -1.5854e+01
  VMC Evar = 2.7417e-01
  Total weights = 5.1200e+05
  Execution time = 1.1853e+00
  </log>
</opt>
<opt stage="main" walkers="512000">
  <log>

*****************************************
Building overlap and Hamiltonian matrices
*****************************************

Among totally 82 optimized parameters, largest LM parameter change : 1.2876e-01 at parameter 21

******************************************************************************
Init Cost =  -1.5048e+01    New Cost =  -1.5056e+01  Delta Cost =  -8.2611e-03
******************************************************************************

The new set of parameters is valid. Updating the trial wave function!

*****************************************************************************
Applying the update for shift_i =   1.0000e-02     and shift_s =   2.5000e-01
*****************************************************************************
  Execution time = 5.0850e+00
  </log>
  <optVariables href="O.log.s001.opt.xml">
uu_0 2.0925e-01 1 1  ON 0
uu_1 9.0770e-02 1 1  ON 1
uu_2 5.8142e-03 1 1  ON 2
uu_3 -4.6162e-02 1 1  ON 3
uu_4 -8.2120e-02 1 1  ON 4
uu_5 -1.0471e-01 1 1  ON 5
uu_6 -1.1179e-01 1 1  ON 6
uu_7 -1.1075e-01 1 1  ON 7
uu_8 -9.5155e-02 1 1  ON 8
uu_9 -6.2436e-02 1 1  ON 9
ud_0 4.9918e-01 1 1  ON 10
ud_1 2.7201e-01 1 1  ON 11
ud_2 1.2837e-01 1 1  ON 12
ud_3 3.9909e-02 1 1  ON 13
ud_4 -1.3478e-02 1 1  ON 14
ud_5 -4.5119e-02 1 1  ON 15
ud_6 -6.2836e-02 1 1  ON 16
ud_7 -7.4760e-02 1 1  ON 17
ud_8 -7.2403e-02 1 1  ON 18
ud_9 -5.6550e-02 1 1  ON 19
eO_0 -7.3566e-01 1 1  ON 20
eO_1 -6.7900e-01 1 1  ON 21
eO_2 -3.6727e-01 1 1  ON 22
eO_3 2.1040e-03 1 1  ON 23
eO_4 2.2169e-01 1 1  ON 24
eO_5 2.5542e-01 1 1  ON 25
eO_6 3.4002e-01 1 1  ON 26
eO_7 3.6742e-01 1 1  ON 27
eO_8 3.3325e-01 1 1  ON 28
eO_9 2.1790e-01 1 1  ON 29
uuO_0 4.7793e-04 1 1  ON 30
uuO_1 1.7691e-04 1 1  ON 31
uuO_2 -6.5962e-04 1 1  ON 32
uuO_3 -7.9611e-04 1 1  ON 33
uuO_4 -3.2768e-04 1 1  ON 34
uuO_5 4.6039e-05 1 1  ON 35
uuO_6 -7.2626e-04 1 1  ON 36
uuO_7 1.3075e-04 1 1  ON 37
uuO_8 3.9405e-04 1 1  ON 38
uuO_9 2.1848e-04 1 1  ON 39
uuO_10 -8.3680e-04 1 1  ON 40
uuO_11 9.5009e-04 1 1  ON 41
uuO_12 -5.2903e-04 1 1  ON 42
uuO_13 1.1884e-03 1 1  ON 43
uuO_14 6.0624e-04 1 1  ON 44
uuO_15 -1.7386e-05 1 1  ON 45
uuO_16 -9.9674e-04 1 1  ON 46
uuO_17 3.0228e-03 1 1  ON 47
uuO_18 -2.2643e-03 1 1  ON 48
uuO_19 6.7692e-04 1 1  ON 49
uuO_20 -4.1064e-04 1 1  ON 50
uuO_21 1.8784e-04 1 1  ON 51
uuO_22 -9.1890e-05 1 1  ON 52
uuO_23 2.1842e-04 1 1  ON 53
uuO_24 -6.0394e-05 1 1  ON 54
uuO_25 1.6580e-05 1 1  ON 55
udO_0 -3.4751e-04 1 1  ON 56
udO_1 5.4800e-04 1 1  ON 57
udO_2 1.3519e-03 1 1  ON 58
udO_3 -2.0020e-04 1 1  ON 59
udO_4 -4.2862e-04 1 1  ON 60
udO_5 -1.5693e-05 1 1  ON 61
udO_6 1.5773e-03 1 1  ON 62
udO_7 -5.3685e-05 1 1  ON 63
udO_8 1.5331e-03 1 1  ON 64
udO_9 -7.3978e-04 1 1  ON 65
udO_10 -1.5729e-04 1 1  ON 66
udO_11 -7.0593e-04 1 1  ON 67
udO_12 -5.7482e-04 1 1  ON 68
udO_13 3.2639e-04 1 1  ON 69
udO_14 3.5666e-04 1 1  ON 70
udO_15 2.7129e-05 1 1  ON 71
udO_16 1.0875e-03 1 1  ON 72
udO_17 4.7944e-04 1 1  ON 73
udO_18 -2.8257e-04 1 1  ON 74
udO_19 3.8128e-04 1 1  ON 75
udO_20 -5.7525e-04 1 1  ON 76
udO_21 1.5041e-04 1 1  ON 77
udO_22 -7.5798e-05 1 1  ON 78
udO_23 3.6392e-04 1 1  ON 79
udO_24 -1.3316e-04 1 1  ON 80
udO_25 3.1679e-05 1 1  ON 81
  </optVariables>
   Restore the number of walkers to 1, removing 0 walkers.
</opt>
</optimization-report>
  QMC Execution time = 5.0984e+00 secs 
  Reusing QMCFixedSampleLinearOptimize
 Using QMCCostFunction::QMCCostFunction

=========================================================
  Start QMCFixedSampleLinearOptimize
  File Root O.log.s002 append = no 
=========================================================
  Skip QMCDriver::putQMCInfo 
  Resetting Properties of the walkers 1 x 13

=========================================================
  Start VMC
  File Root O.log.s002 append = no 
=========================================================
Using existing walkers 
  Resetting Properties of the walkers 1 x 13

<vmc function="put">
  qmc_counter=1  my_counter=1
  time step      = 1.5000e-01
  blocks         = 300
  steps          = 2
  substeps       = 5
  current        = 0
  target samples = 5.1200e+05
  walkers/mpi    = 1

  stepsbetweensamples = 1
<parameter name="blocks" condition="int">300</parameter>
<parameter name="blocks_between_recompute" condition="int">0</parameter>
<parameter name="check_properties" condition="int">100</parameter>
<parameter name="checkproperties" condition="int">100</parameter>
<parameter name="current" condition="int">0</parameter>
<parameter name="dmcwalkersperthread" condition="real">5.0000e+02</parameter>
<parameter name="maxcpusecs" condition="real">3.6000e+05</parameter>
<parameter name="record_configs" condition="int">0</parameter>
<parameter name="record_walkers" condition="int">1</parameter>
<parameter name="recordconfigs" condition="int">0</parameter>
<parameter name="recordwalkers" condition="int">1</parameter>
<parameter name="rewind" condition="int">0</parameter>
<parameter name="samples" condition="real">5.1200e+05</parameter>
<parameter name="samplesperthread" condition="real">5.0000e+02</parameter>
<parameter name="steps" condition="int">2</parameter>
<parameter name="stepsbetweensamples" condition="int">1</parameter>
<parameter name="store_configs" condition="int">0</parameter>
<parameter name="storeconfigs" condition="int">0</parameter>
<parameter name="sub_steps" condition="int">5</parameter>
<parameter name="substeps" condition="int">5</parameter>
<parameter name="tau" condition="au">1.5000e-01</parameter>
<parameter name="time_step" condition="au">1.5000e-01</parameter>
<parameter name="timestep" condition="au">1.5000e-01</parameter>
<parameter name="use_drift" condition="string">no</parameter>
<parameter name="usedrift" condition="string">no</parameter>
<parameter name="walkers" condition="int">1</parameter>
<parameter name="warmup_steps" condition="int">0</parameter>
<parameter name="warmupsteps" condition="int">0</parameter>
  DumpConfig==false Nothing (configurations, state) will be saved.
  Walker Samples are dumped every 1 steps.
</vmc>
  EstimatorManagerBase::add replace LocalEnergy estimator.
  EstimatorManagerBase::add replace LocalEnergy estimator.
<optimization-report>
<vmc stage="main" blocks="300">
  Cannot make clones again. Use existing 1 clones
  Initial partition of walkers 0 1 
  Using Particle by Particle moves
  Walker moves without drift
  Total Sample Size   =512000
  Walker distribution on root = 0 1 
  Using Locality Approximation
===== Memory Usage after the buffer registration =====
Available memory on node 0, free + buffers : 82553 MB
Memory footprint by rank 0 on node 0       : 91 MB
==================================================
====================================================
  SimpleFixedNodeBranch::finalize after a VMC block
    QMC counter        = 2
    time step          = 0.15
    reference energy   = -15.8682
    reference variance = 0.163044
====================================================
  Execution time = 2.7913e+00
</vmc>
<opt stage="setup">
  <log>
   Reading configurations from h5FileRoot O.log.s002
  QMCCostFunction is created with 1 threads.
  Using Nonlocal PP in Opt: NonLocalECP
   Number of samples loaded to each thread : 500 
  VMC Eavg = -1.5859e+01
  VMC Evar = 1.9694e-01
  Total weights = 5.1200e+05
  Execution time = 9.4773e-01
  </log>
</opt>
<opt stage="main" walkers="512000">
  <log>

*****************************************
Building overlap and Hamiltonian matrices
*****************************************

Among totally 82 optimized parameters, largest LM parameter change : 8.3911e-02 at parameter 21

******************************************************************************
Init Cost =  -1.5056e+01    New Cost =  -1.5057e+01  Delta Cost =  -7.2645e-04
******************************************************************************

The new set of parameters is valid. Updating the trial wave function!

*****************************************************************************
Applying the update for shift_i =   1.0000e-02     and shift_s =   6.2500e-02
*****************************************************************************
  Execution time = 4.6123e+00
  </log>
  <optVariables href="O.log.s002.opt.xml">
uu_0 1.9573e-01 1 1  ON 0
uu_1 7.9187e-02 1 1  ON 1
uu_2 7.1828e-04 1 1  ON 2
uu_3 -4.4561e-02 1 1  ON 3
uu_4 -7.5948e-02 1 1  ON 4
uu_5 -9.7392e-02 1 1  ON 5
uu_6 -1.0536e-01 1 1  ON 6
uu_7 -1.0699e-01 1 1  ON 7
uu_8 -9.3988e-02 1 1  ON 8
uu_9 -6.5128e-02 1 1  ON 9
ud_0 5.0101e-01 1 1  ON 10
ud_1 2.7270e-01 1 1  ON 11
ud_2 1.2848e-01 1 1  ON 12
ud_3 4.1024e-02 1 1  ON 13
ud_4 -9.7764e-03 1 1  ON 14
ud_5 -3.9773e-02 1 1  ON 15
ud_6 -5.7116e-02 1 1  ON 16
ud_7 -7.0384e-02 1 1  ON 17
ud_8 -6.9008e-02 1 1  ON 18
ud_9 -5.8336e-02 1 1  ON 19
eO_0 -7.8596e-01 1 1  ON 20
eO_1 -7.6292e-01 1 1  ON 21
eO_2 -4.1886e-01 1 1  ON 22
eO_3 2.2782e-02 1 1  ON 23
eO_4 2.8076e-01 1 1  ON 24
eO_5 2.7638e-01 1 1  ON 25
eO_6 3.6316e-01 1 1  ON 26
eO_7 3.8806e-01 1 1  ON 27
eO_8 3.4968e-01 1 1  ON 28
eO_9 2.2819e-01 1 1  ON 29
uuO_0 4.8544e-04 1 1  ON 30
uuO_1 2.0736e-04 1 1  ON 31
uuO_2 -9.3807e-04 1 1  ON 32
uuO_3 -7.9348e-04 1 1  ON 33
uuO_4 -3.1382e-04 1 1  ON 34
uuO_5 6.7699e-05 1 1  ON 35
uuO_6 -8.4209e-04 1 1  ON 36
uuO_7 1.6486e-04 1 1  ON 37
uuO_8 -6.8502e-05 1 1  ON 38
uuO_9 3.7879e-04 1 1  ON 39
uuO_10 -9.0770e-04 1 1  ON 40
uuO_11 1.4339e-03 1 1  ON 41
uuO_12 -4.6312e-04 1 1  ON 42
uuO_13 9.9315e-04 1 1  ON 43
uuO_14 5.5434e-04 1 1  ON 44
uuO_15 -2.3079e-05 1 1  ON 45
uuO_16 -1.1679e-03 1 1  ON 46
uuO_17 3.0862e-03 1 1  ON 47
uuO_18 -2.8482e-03 1 1  ON 48
uuO_19 7.9392e-04 1 1  ON 49
uuO_20 -2.2207e-04 1 1  ON 50
uuO_21 2.5223e-04 1 1  ON 51
uuO_22 -1.1184e-04 1 1  ON 52
uuO_23 1.4575e-04 1 1  ON 53
uuO_24 -6.6204e-05 1 1  ON 54
uuO_25 1.6549e-05 1 1  ON 55
udO_0 -3.7125e-04 1 1  ON 56
udO_1 6.2067e-04 1 1  ON 57
udO_2 1.4205e-03 1 1  ON 58
udO_3 -2.1415e-04 1 1  ON 59
udO_4 -4.5716e-04 1 1  ON 60
udO_5 8.0470e-06 1 1  ON 61
udO_6 1.6798e-03 1 1  ON 62
udO_7 -9.9651e-05 1 1  ON 63
udO_8 1.5945e-03 1 1  ON 64
udO_9 -7.4348e-04 1 1  ON 65
udO_10 -1.6903e-04 1 1  ON 66
udO_11 -7.0132e-04 1 1  ON 67
udO_12 -6.3471e-04 1 1  ON 68
udO_13 3.0620e-04 1 1  ON 69
udO_14 3.8629e-04 1 1  ON 70
udO_15 3.1647e-05 1 1  ON 71
udO_16 1.1794e-03 1 1  ON 72
udO_17 4.7328e-04 1 1  ON 73
udO_18 -2.7858e-04 1 1  ON 74
udO_19 4.3956e-04 1 1  ON 75
udO_20 -5.8466e-04 1 1  ON 76
udO_21 1.2657e-04 1 1  ON 77
udO_22 -7.8019e-05 1 1  ON 78
udO_23 3.6636e-04 1 1  ON 79
udO_24 -1.2885e-04 1 1  ON 80
udO_25 2.8467e-05 1 1  ON 81
  </optVariables>
   Restore the number of walkers to 1, removing 0 walkers.
</opt>
</optimization-report>
  QMC Execution time = 4.6255e+00 secs 
  Reusing QMCFixedSampleLinearOptimize
 Using QMCCostFunction::QMCCostFunction

=========================================================
  Start QMCFixedSampleLinearOptimize
  File Root O.log.s003 append = no 
=========================================================
  Skip QMCDriver::putQMCInfo 
  Resetting Properties of the walkers 1 x 13

=========================================================
  Start VMC
  File Root O.log.s003 append = no 
=========================================================
Using existing walkers 
  Resetting Properties of the walkers 1 x 13

<vmc function="put">
  qmc_counter=2  my_counter=2
  time step      = 1.5000e-01
  blocks         = 300
  steps          = 2
  substeps       = 5
  current        = 0
  target samples = 5.1200e+05
  walkers/mpi    = 1

  stepsbetweensamples = 1
<parameter name="blocks" condition="int">300</parameter>
<parameter name="blocks_between_recompute" condition="int">0</parameter>
<parameter name="check_properties" condition="int">100</parameter>
<parameter name="checkproperties" condition="int">100</parameter>
<parameter name="current" condition="int">0</parameter>
<parameter name="dmcwalkersperthread" condition="real">5.0000e+02</parameter>
<parameter name="maxcpusecs" condition="real">3.6000e+05</parameter>
<parameter name="record_configs" condition="int">0</parameter>
<parameter name="record_walkers" condition="int">1</parameter>
<parameter name="recordconfigs" condition="int">0</parameter>
<parameter name="recordwalkers" condition="int">1</parameter>
<parameter name="rewind" condition="int">0</parameter>
<parameter name="samples" condition="real">5.1200e+05</parameter>
<parameter name="samplesperthread" condition="real">5.0000e+02</parameter>
<parameter name="steps" condition="int">2</parameter>
<parameter name="stepsbetweensamples" condition="int">1</parameter>
<parameter name="store_configs" condition="int">0</parameter>
<parameter name="storeconfigs" condition="int">0</parameter>
<parameter name="sub_steps" condition="int">5</parameter>
<parameter name="substeps" condition="int">5</parameter>
<parameter name="tau" condition="au">1.5000e-01</parameter>
<parameter name="time_step" condition="au">1.5000e-01</parameter>
<parameter name="timestep" condition="au">1.5000e-01</parameter>
<parameter name="use_drift" condition="string">no</parameter>
<parameter name="usedrift" condition="string">no</parameter>
<parameter name="walkers" condition="int">1</parameter>
<parameter name="warmup_steps" condition="int">0</parameter>
<parameter name="warmupsteps" condition="int">0</parameter>
  DumpConfig==false Nothing (configurations, state) will be saved.
  Walker Samples are dumped every 1 steps.
</vmc>
  EstimatorManagerBase::add replace LocalEnergy estimator.
  EstimatorManagerBase::add replace LocalEnergy estimator.
<optimization-report>
<vmc stage="main" blocks="300">
  Cannot make clones again. Use existing 1 clones
  Initial partition of walkers 0 1 
  Using Particle by Particle moves
  Walker moves without drift
  Total Sample Size   =512000
  Walker distribution on root = 0 1 
  Using Locality Approximation
===== Memory Usage after the buffer registration =====
Available memory on node 0, free + buffers : 82551 MB
Memory footprint by rank 0 on node 0       : 93 MB
==================================================
====================================================
  SimpleFixedNodeBranch::finalize after a VMC block
    QMC counter        = 3
    time step          = 0.15
    reference energy   = -15.8715
    reference variance = 0.145086
====================================================
  Execution time = 2.7927e+00
</vmc>
<opt stage="setup">
  <log>
   Reading configurations from h5FileRoot O.log.s003
  QMCCostFunction is created with 1 threads.
  Using Nonlocal PP in Opt: NonLocalECP
   Number of samples loaded to each thread : 500 
  VMC Eavg = -1.5859e+01
  VMC Evar = 2.0491e-01
  Total weights = 5.1200e+05
  Execution time = 8.9145e-01
  </log>
</opt>
<opt stage="main" walkers="512000">
  <log>

*****************************************
Building overlap and Hamiltonian matrices
*****************************************

Among totally 82 optimized parameters, largest LM parameter change : 5.2439e-02 at parameter 21

******************************************************************************
Init Cost =  -1.5056e+01    New Cost =  -1.5056e+01  Delta Cost =  -2.3459e-04
******************************************************************************

The new set of parameters is valid. Updating the trial wave function!

*****************************************************************************
Applying the update for shift_i =   1.0000e-02     and shift_s =   1.5625e-02
*****************************************************************************
  Execution time = 4.5063e+00
  </log>
  <optVariables href="O.log.s003.opt.xml">
uu_0 1.8363e-01 1 1  ON 0
uu_1 6.9419e-02 1 1  ON 1
uu_2 -3.6015e-03 1 1  ON 2
uu_3 -4.3828e-02 1 1  ON 3
uu_4 -7.1267e-02 1 1  ON 4
uu_5 -9.1739e-02 1 1  ON 5
uu_6 -9.9410e-02 1 1  ON 6
uu_7 -1.0203e-01 1 1  ON 7
uu_8 -9.2036e-02 1 1  ON 8
uu_9 -6.2269e-02 1 1  ON 9
ud_0 5.0003e-01 1 1  ON 10
ud_1 2.7222e-01 1 1  ON 11
ud_2 1.2985e-01 1 1  ON 12
ud_3 4.3681e-02 1 1  ON 13
ud_4 -6.4661e-03 1 1  ON 14
ud_5 -3.6306e-02 1 1  ON 15
ud_6 -5.3300e-02 1 1  ON 16
ud_7 -6.8271e-02 1 1  ON 17
ud_8 -7.0178e-02 1 1  ON 18
ud_9 -5.6542e-02 1 1  ON 19
eO_0 -8.3031e-01 1 1  ON 20
eO_1 -8.1535e-01 1 1  ON 21
eO_2 -4.5753e-01 1 1  ON 22
eO_3 1.9475e-02 1 1  ON 23
eO_4 3.0457e-01 1 1  ON 24
eO_5 2.9793e-01 1 1  ON 25
eO_6 3.8240e-01 1 1  ON 26
eO_7 4.1054e-01 1 1  ON 27
eO_8 3.7308e-01 1 1  ON 28
eO_9 2.4479e-01 1 1  ON 29
uuO_0 5.0399e-04 1 1  ON 30
uuO_1 2.5617e-04 1 1  ON 31
uuO_2 -1.0338e-03 1 1  ON 32
uuO_3 -8.8299e-04 1 1  ON 33
uuO_4 -3.8805e-04 1 1  ON 34
uuO_5 8.8512e-05 1 1  ON 35
uuO_6 -8.7398e-04 1 1  ON 36
uuO_7 1.4327e-04 1 1  ON 37
uuO_8 3.5795e-05 1 1  ON 38
uuO_9 4.2443e-04 1 1  ON 39
uuO_10 -1.0649e-03 1 1  ON 40
uuO_11 1.6079e-03 1 1  ON 41
uuO_12 -6.3664e-04 1 1  ON 42
uuO_13 1.1545e-03 1 1  ON 43
uuO_14 7.1365e-04 1 1  ON 44
uuO_15 -2.1412e-05 1 1  ON 45
uuO_16 -1.3160e-03 1 1  ON 46
uuO_17 3.5731e-03 1 1  ON 47
uuO_18 -3.1533e-03 1 1  ON 48
uuO_19 9.9844e-04 1 1  ON 49
uuO_20 -2.7329e-04 1 1  ON 50
uuO_21 2.0762e-04 1 1  ON 51
uuO_22 -1.2933e-04 1 1  ON 52
uuO_23 1.8635e-04 1 1  ON 53
uuO_24 -5.0150e-05 1 1  ON 54
uuO_25 1.4555e-05 1 1  ON 55
udO_0 -3.7398e-04 1 1  ON 56
udO_1 6.2865e-04 1 1  ON 57
udO_2 1.4329e-03 1 1  ON 58
udO_3 -2.1396e-04 1 1  ON 59
udO_4 -4.7500e-04 1 1  ON 60
udO_5 2.6830e-05 1 1  ON 61
udO_6 1.6614e-03 1 1  ON 62
udO_7 -1.1927e-04 1 1  ON 63
udO_8 1.7050e-03 1 1  ON 64
udO_9 -7.0987e-04 1 1  ON 65
udO_10 -1.7352e-04 1 1  ON 66
udO_11 -7.8114e-04 1 1  ON 67
udO_12 -7.2486e-04 1 1  ON 68
udO_13 3.1040e-04 1 1  ON 69
udO_14 4.5890e-04 1 1  ON 70
udO_15 3.5722e-05 1 1  ON 71
udO_16 1.1762e-03 1 1  ON 72
udO_17 4.8656e-04 1 1  ON 73
udO_18 -1.1817e-04 1 1  ON 74
udO_19 5.0319e-04 1 1  ON 75
udO_20 -5.8524e-04 1 1  ON 76
udO_21 4.4486e-05 1 1  ON 77
udO_22 -7.5314e-05 1 1  ON 78
udO_23 3.6885e-04 1 1  ON 79
udO_24 -1.0364e-04 1 1  ON 80
udO_25 2.2896e-05 1 1  ON 81
  </optVariables>
   Restore the number of walkers to 1, removing 0 walkers.
</opt>
</optimization-report>
  QMC Execution time = 4.5192e+00 secs 
  Reusing QMCFixedSampleLinearOptimize
 Using QMCCostFunction::QMCCostFunction

=========================================================
  Start QMCFixedSampleLinearOptimize
  File Root O.log.s004 append = no 
=========================================================
  Skip QMCDriver::putQMCInfo 
  Resetting Properties of the walkers 1 x 13

=========================================================
  Start VMC
  File Root O.log.s004 append = no 
=========================================================
Using existing walkers 
  Resetting Properties of the walkers 1 x 13

<vmc function="put">
  qmc_counter=3  my_counter=3
  time step      = 1.5000e-01
  blocks         = 300
  steps          = 2
  substeps       = 5
  current        = 0
  target samples = 5.1200e+05
  walkers/mpi    = 1

  stepsbetweensamples = 1
<parameter name="blocks" condition="int">300</parameter>
<parameter name="blocks_between_recompute" condition="int">0</parameter>
<parameter name="check_properties" condition="int">100</parameter>
<parameter name="checkproperties" condition="int">100</parameter>
<parameter name="current" condition="int">0</parameter>
<parameter name="dmcwalkersperthread" condition="real">5.0000e+02</parameter>
<parameter name="maxcpusecs" condition="real">3.6000e+05</parameter>
<parameter name="record_configs" condition="int">0</parameter>
<parameter name="record_walkers" condition="int">1</parameter>
<parameter name="recordconfigs" condition="int">0</parameter>
<parameter name="recordwalkers" condition="int">1</parameter>
<parameter name="rewind" condition="int">0</parameter>
<parameter name="samples" condition="real">5.1200e+05</parameter>
<parameter name="samplesperthread" condition="real">5.0000e+02</parameter>
<parameter name="steps" condition="int">2</parameter>
<parameter name="stepsbetweensamples" condition="int">1</parameter>
<parameter name="store_configs" condition="int">0</parameter>
<parameter name="storeconfigs" condition="int">0</parameter>
<parameter name="sub_steps" condition="int">5</parameter>
<parameter name="substeps" condition="int">5</parameter>
<parameter name="tau" condition="au">1.5000e-01</parameter>
<parameter name="time_step" condition="au">1.5000e-01</parameter>
<parameter name="timestep" condition="au">1.5000e-01</parameter>
<parameter name="use_drift" condition="string">no</parameter>
<parameter name="usedrift" condition="string">no</parameter>
<parameter name="walkers" condition="int">1</parameter>
<parameter name="warmup_steps" condition="int">0</parameter>
<parameter name="warmupsteps" condition="int">0</parameter>
  DumpConfig==false Nothing (configurations, state) will be saved.
  Walker Samples are dumped every 1 steps.
</vmc>
  EstimatorManagerBase::add replace LocalEnergy estimator.
  EstimatorManagerBase::add replace LocalEnergy estimator.
<optimization-report>
<vmc stage="main" blocks="300">
  Cannot make clones again. Use existing 1 clones
  Initial partition of walkers 0 1 
  Using Particle by Particle moves
  Walker moves without drift
  Total Sample Size   =512000
  Walker distribution on root = 0 1 
  Using Locality Approximation
===== Memory Usage after the buffer registration =====
Available memory on node 0, free + buffers : 82548 MB
Memory footprint by rank 0 on node 0       : 96 MB
==================================================
====================================================
  SimpleFixedNodeBranch::finalize after a VMC block
    QMC counter        = 4
    time step          = 0.15
    reference energy   = -15.8554
    reference variance = 0.2044
====================================================
  Execution time = 2.7866e+00
</vmc>
<opt stage="setup">
  <log>
   Reading configurations from h5FileRoot O.log.s004
  QMCCostFunction is created with 1 threads.
  Using Nonlocal PP in Opt: NonLocalECP
   Number of samples loaded to each thread : 500 
  VMC Eavg = -1.5859e+01
  VMC Evar = 2.1063e-01
  Total weights = 5.1200e+05
  Execution time = 8.5494e-01
  </log>
</opt>
<opt stage="main" walkers="512000">
  <log>

*****************************************
Building overlap and Hamiltonian matrices
*****************************************

Among totally 82 optimized parameters, largest LM parameter change : 4.4645e-02 at parameter 20

******************************************************************************
Init Cost =  -1.5055e+01    New Cost =  -1.5055e+01  Delta Cost =  -2.8163e-04
******************************************************************************

The new set of parameters is valid. Updating the trial wave function!

*****************************************************************************
Applying the update for shift_i =   1.0000e-02     and shift_s =   3.9062e-03
*****************************************************************************
  Execution time = 4.4589e+00
  </log>
  <optVariables href="O.log.s004.opt.xml">
uu_0 1.7533e-01 1 1  ON 0
uu_1 6.4480e-02 1 1  ON 1
uu_2 -4.2399e-03 1 1  ON 2
uu_3 -4.1612e-02 1 1  ON 3
uu_4 -6.8661e-02 1 1  ON 4
uu_5 -8.9797e-02 1 1  ON 5
uu_6 -9.8385e-02 1 1  ON 6
uu_7 -1.0201e-01 1 1  ON 7
uu_8 -9.2543e-02 1 1  ON 8
uu_9 -6.1934e-02 1 1  ON 9
ud_0 4.9967e-01 1 1  ON 10
ud_1 2.7220e-01 1 1  ON 11
ud_2 1.3049e-01 1 1  ON 12
ud_3 4.5133e-02 1 1  ON 13
ud_4 -3.9456e-03 1 1  ON 14
ud_5 -3.3641e-02 1 1  ON 15
ud_6 -5.0937e-02 1 1  ON 16
ud_7 -6.6932e-02 1 1  ON 17
ud_8 -7.1172e-02 1 1  ON 18
ud_9 -5.6293e-02 1 1  ON 19
eO_0 -8.7495e-01 1 1  ON 20
eO_1 -8.5611e-01 1 1  ON 21
eO_2 -4.8883e-01 1 1  ON 22
eO_3 8.5736e-03 1 1  ON 23
eO_4 3.1428e-01 1 1  ON 24
eO_5 3.1849e-01 1 1  ON 25
eO_6 4.0345e-01 1 1  ON 26
eO_7 4.3358e-01 1 1  ON 27
eO_8 3.9541e-01 1 1  ON 28
eO_9 2.5977e-01 1 1  ON 29
uuO_0 4.9113e-04 1 1  ON 30
uuO_1 3.2745e-04 1 1  ON 31
uuO_2 -8.5140e-04 1 1  ON 32
uuO_3 -9.0208e-04 1 1  ON 33
uuO_4 -4.6483e-04 1 1  ON 34
uuO_5 1.0793e-04 1 1  ON 35
uuO_6 -6.1995e-04 1 1  ON 36
uuO_7 7.9221e-05 1 1  ON 37
uuO_8 3.8691e-04 1 1  ON 38
uuO_9 2.2403e-04 1 1  ON 39
uuO_10 -1.1078e-03 1 1  ON 40
uuO_11 1.3583e-03 1 1  ON 41
uuO_12 -7.8323e-04 1 1  ON 42
uuO_13 1.2949e-03 1 1  ON 43
uuO_14 8.1976e-04 1 1  ON 44
uuO_15 -1.4853e-05 1 1  ON 45
uuO_16 -8.8529e-04 1 1  ON 46
uuO_17 3.5894e-03 1 1  ON 47
uuO_18 -2.9167e-03 1 1  ON 48
uuO_19 1.0629e-03 1 1  ON 49
uuO_20 -4.7768e-04 1 1  ON 50
uuO_21 1.5856e-04 1 1  ON 51
uuO_22 -1.3370e-04 1 1  ON 52
uuO_23 2.8161e-04 1 1  ON 53
uuO_24 -5.6379e-05 1 1  ON 54
uuO_25 1.6878e-05 1 1  ON 55
udO_0 -4.0268e-04 1 1  ON 56
udO_1 6.4852e-04 1 1  ON 57
udO_2 1.5000e-03 1 1  ON 58
udO_3 -2.1163e-04 1 1  ON 59
udO_4 -5.0011e-04 1 1  ON 60
udO_5 3.7732e-05 1 1  ON 61
udO_6 1.7447e-03 1 1  ON 62
udO_7 -1.9950e-04 1 1  ON 63
udO_8 1.7918e-03 1 1  ON 64
udO_9 -7.2631e-04 1 1  ON 65
udO_10 -1.8143e-04 1 1  ON 66
udO_11 -7.9492e-04 1 1  ON 67
udO_12 -7.8857e-04 1 1  ON 68
udO_13 3.2925e-04 1 1  ON 69
udO_14 4.9473e-04 1 1  ON 70
udO_15 3.9842e-05 1 1  ON 71
udO_16 1.2014e-03 1 1  ON 72
udO_17 4.9664e-04 1 1  ON 73
udO_18 -7.1584e-05 1 1  ON 74
udO_19 5.5420e-04 1 1  ON 75
udO_20 -6.0405e-04 1 1  ON 76
udO_21 6.2306e-06 1 1  ON 77
udO_22 -7.6465e-05 1 1  ON 78
udO_23 3.8362e-04 1 1  ON 79
udO_24 -9.0276e-05 1 1  ON 80
udO_25 1.9976e-05 1 1  ON 81
  </optVariables>
   Restore the number of walkers to 1, removing 0 walkers.
</opt>
</optimization-report>
  QMC Execution time = 4.4727e+00 secs 
  Reusing QMCFixedSampleLinearOptimize
 Using QMCCostFunction::QMCCostFunction

=========================================================
  Start QMCFixedSampleLinearOptimize
  File Root O.log.s005 append = no 
=========================================================
  Skip QMCDriver::putQMCInfo 
  Resetting Properties of the walkers 1 x 13

=========================================================
  Start VMC
  File Root O.log.s005 append = no 
=========================================================
Using existing walkers 
  Resetting Properties of the walkers 1 x 13

<vmc function="put">
  qmc_counter=4  my_counter=4
  time step      = 1.5000e-01
  blocks         = 300
  steps          = 2
  substeps       = 5
  current        = 0
  target samples = 5.1200e+05
  walkers/mpi    = 1

  stepsbetweensamples = 1
<parameter name="blocks" condition="int">300</parameter>
<parameter name="blocks_between_recompute" condition="int">0</parameter>
<parameter name="check_properties" condition="int">100</parameter>
<parameter name="checkproperties" condition="int">100</parameter>
<parameter name="current" condition="int">0</parameter>
<parameter name="dmcwalkersperthread" condition="real">5.0000e+02</parameter>
<parameter name="maxcpusecs" condition="real">3.6000e+05</parameter>
<parameter name="record_configs" condition="int">0</parameter>
<parameter name="record_walkers" condition="int">1</parameter>
<parameter name="recordconfigs" condition="int">0</parameter>
<parameter name="recordwalkers" condition="int">1</parameter>
<parameter name="rewind" condition="int">0</parameter>
<parameter name="samples" condition="real">5.1200e+05</parameter>
<parameter name="samplesperthread" condition="real">5.0000e+02</parameter>
<parameter name="steps" condition="int">2</parameter>
<parameter name="stepsbetweensamples" condition="int">1</parameter>
<parameter name="store_configs" condition="int">0</parameter>
<parameter name="storeconfigs" condition="int">0</parameter>
<parameter name="sub_steps" condition="int">5</parameter>
<parameter name="substeps" condition="int">5</parameter>
<parameter name="tau" condition="au">1.5000e-01</parameter>
<parameter name="time_step" condition="au">1.5000e-01</parameter>
<parameter name="timestep" condition="au">1.5000e-01</parameter>
<parameter name="use_drift" condition="string">no</parameter>
<parameter name="usedrift" condition="string">no</parameter>
<parameter name="walkers" condition="int">1</parameter>
<parameter name="warmup_steps" condition="int">0</parameter>
<parameter name="warmupsteps" condition="int">0</parameter>
  DumpConfig==false Nothing (configurations, state) will be saved.
  Walker Samples are dumped every 1 steps.
</vmc>
  EstimatorManagerBase::add replace LocalEnergy estimator.
  EstimatorManagerBase::add replace LocalEnergy estimator.
<optimization-report>
<vmc stage="main" blocks="300">
  Cannot make clones again. Use existing 1 clones
  Initial partition of walkers 0 1 
  Using Particle by Particle moves
  Walker moves without drift
  Total Sample Size   =512000
  Walker distribution on root = 0 1 
  Using Locality Approximation
===== Memory Usage after the buffer registration =====
Available memory on node 0, free + buffers : 82546 MB
Memory footprint by rank 0 on node 0       : 98 MB
==================================================
====================================================
  SimpleFixedNodeBranch::finalize after a VMC block
    QMC counter        = 5
    time step          = 0.15
    reference energy   = -15.8271
    reference variance = 0.152024
====================================================
  Execution time = 2.7406e+00
</vmc>
<opt stage="setup">
  <log>
   Reading configurations from h5FileRoot O.log.s005
  QMCCostFunction is created with 1 threads.
  Using Nonlocal PP in Opt: NonLocalECP
   Number of samples loaded to each thread : 500 
  VMC Eavg = -1.5860e+01
  VMC Evar = 2.0588e-01
  Total weights = 5.1200e+05
  Execution time = 9.0743e-01
  </log>
</opt>
<opt stage="main" walkers="512000">
  <log>

*****************************************
Building overlap and Hamiltonian matrices
*****************************************

Among totally 82 optimized parameters, largest LM parameter change : 3.7523e-02 at parameter 20

******************************************************************************
Init Cost =  -1.5057e+01    New Cost =  -1.5057e+01  Delta Cost =  -1.9439e-04
******************************************************************************

The new set of parameters is valid. Updating the trial wave function!

*****************************************************************************
Applying the update for shift_i =   1.0000e-02     and shift_s =   3.9062e-03
*****************************************************************************
  Execution time = 4.5024e+00
  </log>
  <optVariables href="O.log.s005.opt.xml">
uu_0 1.7083e-01 1 1  ON 0
uu_1 6.2449e-02 1 1  ON 1
uu_2 -4.9182e-03 1 1  ON 2
uu_3 -4.1156e-02 1 1  ON 3
uu_4 -6.6950e-02 1 1  ON 4
uu_5 -8.7844e-02 1 1  ON 5
uu_6 -9.6830e-02 1 1  ON 6
uu_7 -1.0069e-01 1 1  ON 7
uu_8 -9.2123e-02 1 1  ON 8
uu_9 -6.6328e-02 1 1  ON 9
ud_0 5.0064e-01 1 1  ON 10
ud_1 2.7379e-01 1 1  ON 11
ud_2 1.3272e-01 1 1  ON 12
ud_3 4.7410e-02 1 1  ON 13
ud_4 -1.9682e-03 1 1  ON 14
ud_5 -3.1533e-02 1 1  ON 15
ud_6 -4.9081e-02 1 1  ON 16
ud_7 -6.5110e-02 1 1  ON 17
ud_8 -6.9038e-02 1 1  ON 18
ud_9 -5.6866e-02 1 1  ON 19
eO_0 -9.1248e-01 1 1  ON 20
eO_1 -8.8252e-01 1 1  ON 21
eO_2 -5.1344e-01 1 1  ON 22
eO_3 -1.1111e-02 1 1  ON 23
eO_4 3.1273e-01 1 1  ON 24
eO_5 3.3751e-01 1 1  ON 25
eO_6 4.2184e-01 1 1  ON 26
eO_7 4.5430e-01 1 1  ON 27
eO_8 4.1282e-01 1 1  ON 28
eO_9 2.7599e-01 1 1  ON 29
uuO_0 4.5487e-04 1 1  ON 30
uuO_1 2.7162e-04 1 1  ON 31
uuO_2 -9.1713e-04 1 1  ON 32
uuO_3 -8.1148e-04 1 1  ON 33
uuO_4 -3.8905e-04 1 1  ON 34
uuO_5 1.2098e-04 1 1  ON 35
uuO_6 -7.3588e-04 1 1  ON 36
uuO_7 8.6634e-05 1 1  ON 37
uuO_8 1.0298e-04 1 1  ON 38
uuO_9 3.5740e-04 1 1  ON 39
uuO_10 -1.0043e-03 1 1  ON 40
uuO_11 1.4153e-03 1 1  ON 41
uuO_12 -6.5058e-04 1 1  ON 42
uuO_13 1.0530e-03 1 1  ON 43
uuO_14 6.8339e-04 1 1  ON 44
uuO_15 -1.2697e-05 1 1  ON 45
uuO_16 -9.9635e-04 1 1  ON 46
uuO_17 3.1498e-03 1 1  ON 47
uuO_18 -2.7284e-03 1 1  ON 48
uuO_19 9.7133e-04 1 1  ON 49
uuO_20 -2.9201e-04 1 1  ON 50
uuO_21 1.2842e-04 1 1  ON 51
uuO_22 -1.1979e-04 1 1  ON 52
uuO_23 2.0896e-04 1 1  ON 53
uuO_24 -2.9707e-05 1 1  ON 54
uuO_25 1.0020e-05 1 1  ON 55
udO_0 -3.5638e-04 1 1  ON 56
udO_1 6.5562e-04 1 1  ON 57
udO_2 1.4212e-03 1 1  ON 58
udO_3 -2.2178e-04 1 1  ON 59
udO_4 -4.7132e-04 1 1  ON 60
udO_5 4.7870e-05 1 1  ON 61
udO_6 1.7081e-03 1 1  ON 62
udO_7 -2.7099e-04 1 1  ON 63
udO_8 1.7343e-03 1 1  ON 64
udO_9 -7.4242e-04 1 1  ON 65
udO_10 -1.8683e-04 1 1  ON 66
udO_11 -7.1908e-04 1 1  ON 67
udO_12 -7.7181e-04 1 1  ON 68
udO_13 3.9461e-04 1 1  ON 69
udO_14 4.9351e-04 1 1  ON 70
udO_15 3.7785e-05 1 1  ON 71
udO_16 1.1657e-03 1 1  ON 72
udO_17 5.9422e-04 1 1  ON 73
udO_18 -1.3313e-04 1 1  ON 74
udO_19 5.5302e-04 1 1  ON 75
udO_20 -6.3025e-04 1 1  ON 76
udO_21 5.5019e-06 1 1  ON 77
udO_22 -7.5043e-05 1 1  ON 78
udO_23 4.0680e-04 1 1  ON 79
udO_24 -9.0010e-05 1 1  ON 80
udO_25 1.9818e-05 1 1  ON 81
  </optVariables>
   Restore the number of walkers to 1, removing 0 walkers.
</opt>
</optimization-report>
  QMC Execution time = 4.5159e+00 secs 
  Reusing QMCFixedSampleLinearOptimize
 Using QMCCostFunction::QMCCostFunction

=========================================================
  Start QMCFixedSampleLinearOptimize
  File Root O.log.s006 append = no 
=========================================================
  Skip QMCDriver::putQMCInfo 
  Resetting Properties of the walkers 1 x 13

=========================================================
  Start VMC
  File Root O.log.s006 append = no 
=========================================================
Using existing walkers 
  Resetting Properties of the walkers 1 x 13

<vmc function="put">
  qmc_counter=5  my_counter=5
  time step      = 1.5000e-01
  blocks         = 300
  steps          = 2
  substeps       = 5
  current        = 0
  target samples = 5.1200e+05
  walkers/mpi    = 1

  stepsbetweensamples = 1
<parameter name="blocks" condition="int">300</parameter>
<parameter name="blocks_between_recompute" condition="int">0</parameter>
<parameter name="check_properties" condition="int">100</parameter>
<parameter name="checkproperties" condition="int">100</parameter>
<parameter name="current" condition="int">0</parameter>
<parameter name="dmcwalkersperthread" condition="real">5.0000e+02</parameter>
<parameter name="maxcpusecs" condition="real">3.6000e+05</parameter>
<parameter name="record_configs" condition="int">0</parameter>
<parameter name="record_walkers" condition="int">1</parameter>
<parameter name="recordconfigs" condition="int">0</parameter>
<parameter name="recordwalkers" condition="int">1</parameter>
<parameter name="rewind" condition="int">0</parameter>
<parameter name="samples" condition="real">5.1200e+05</parameter>
<parameter name="samplesperthread" condition="real">5.0000e+02</parameter>
<parameter name="steps" condition="int">2</parameter>
<parameter name="stepsbetweensamples" condition="int">1</parameter>
<parameter name="store_configs" condition="int">0</parameter>
<parameter name="storeconfigs" condition="int">0</parameter>
<parameter name="sub_steps" condition="int">5</parameter>
<parameter name="substeps" condition="int">5</parameter>
<parameter name="tau" condition="au">1.5000e-01</parameter>
<parameter name="time_step" condition="au">1.5000e-01</parameter>
<parameter name="timestep" condition="au">1.5000e-01</parameter>
<parameter name="use_drift" condition="string">no</parameter>
<parameter name="usedrift" condition="string">no</parameter>
<parameter name="walkers" condition="int">1</parameter>
<parameter name="warmup_steps" condition="int">0</parameter>
<parameter name="warmupsteps" condition="int">0</parameter>
  DumpConfig==false Nothing (configurations, state) will be saved.
  Walker Samples are dumped every 1 steps.
</vmc>
  EstimatorManagerBase::add replace LocalEnergy estimator.
  EstimatorManagerBase::add replace LocalEnergy estimator.
<optimization-report>
<vmc stage="main" blocks="300">
  Cannot make clones again. Use existing 1 clones
  Initial partition of walkers 0 1 
  Using Particle by Particle moves
  Walker moves without drift
  Total Sample Size   =512000
  Walker distribution on root = 0 1 
  Using Locality Approximation
===== Memory Usage after the buffer registration =====
Available memory on node 0, free + buffers : 82544 MB
Memory footprint by rank 0 on node 0       : 100 MB
==================================================
====================================================
  SimpleFixedNodeBranch::finalize after a VMC block
    QMC counter        = 6
    time step          = 0.15
    reference energy   = -15.8458
    reference variance = 0.157118
====================================================
  Execution time = 2.7153e+00
</vmc>
<opt stage="setup">
  <log>
   Reading configurations from h5FileRoot O.log.s006
  QMCCostFunction is created with 1 threads.
  Using Nonlocal PP in Opt: NonLocalECP
   Number of samples loaded to each thread : 500 
  VMC Eavg = -1.5858e+01
  VMC Evar = 2.0797e-01
  Total weights = 5.1200e+05
  Execution time = 8.6607e-01
  </log>
</opt>
<opt stage="main" walkers="512000">
  <log>

*****************************************
Building overlap and Hamiltonian matrices
*****************************************

Among totally 82 optimized parameters, largest LM parameter change : 3.2588e-02 at parameter 20

******************************************************************************
Init Cost =  -1.5055e+01    New Cost =  -1.5055e+01  Delta Cost =  -1.3124e-04
******************************************************************************

The new set of parameters is valid. Updating the trial wave function!

*****************************************************************************
Applying the update for shift_i =   1.0000e-02     and shift_s =   3.9062e-03
*****************************************************************************
  Execution time = 4.3962e+00
  </log>
  <optVariables href="O.log.s006.opt.xml">
uu_0 1.6799e-01 1 1  ON 0
uu_1 6.1470e-02 1 1  ON 1
uu_2 -4.6793e-03 1 1  ON 2
uu_3 -4.0433e-02 1 1  ON 3
uu_4 -6.6311e-02 1 1  ON 4
uu_5 -8.7609e-02 1 1  ON 5
uu_6 -9.7334e-02 1 1  ON 6
uu_7 -1.0295e-01 1 1  ON 7
uu_8 -9.5608e-02 1 1  ON 8
uu_9 -6.8517e-02 1 1  ON 9
ud_0 5.0245e-01 1 1  ON 10
ud_1 2.7570e-01 1 1  ON 11
ud_2 1.3467e-01 1 1  ON 12
ud_3 4.9841e-02 1 1  ON 13
ud_4 1.0615e-03 1 1  ON 14
ud_5 -2.8888e-02 1 1  ON 15
ud_6 -4.7312e-02 1 1  ON 16
ud_7 -6.4407e-02 1 1  ON 17
ud_8 -7.0791e-02 1 1  ON 18
ud_9 -5.8323e-02 1 1  ON 19
eO_0 -9.4507e-01 1 1  ON 20
eO_1 -9.0845e-01 1 1  ON 21
eO_2 -5.3845e-01 1 1  ON 22
eO_3 -2.9159e-02 1 1  ON 23
eO_4 3.1030e-01 1 1  ON 24
eO_5 3.5337e-01 1 1  ON 25
eO_6 4.3703e-01 1 1  ON 26
eO_7 4.7338e-01 1 1  ON 27
eO_8 4.3034e-01 1 1  ON 28
eO_9 2.9166e-01 1 1  ON 29
uuO_0 4.3213e-04 1 1  ON 30
uuO_1 2.6081e-04 1 1  ON 31
uuO_2 -9.2280e-04 1 1  ON 32
uuO_3 -7.8962e-04 1 1  ON 33
uuO_4 -4.0404e-04 1 1  ON 34
uuO_5 1.2908e-04 1 1  ON 35
uuO_6 -7.4953e-04 1 1  ON 36
uuO_7 1.8257e-04 1 1  ON 37
uuO_8 1.2974e-04 1 1  ON 38
uuO_9 3.8164e-04 1 1  ON 39
uuO_10 -1.0201e-03 1 1  ON 40
uuO_11 1.3819e-03 1 1  ON 41
uuO_12 -6.7254e-04 1 1  ON 42
uuO_13 1.0211e-03 1 1  ON 43
uuO_14 7.0922e-04 1 1  ON 44
uuO_15 -1.2999e-05 1 1  ON 45
uuO_16 -1.0135e-03 1 1  ON 46
uuO_17 3.1616e-03 1 1  ON 47
uuO_18 -2.7283e-03 1 1  ON 48
uuO_19 9.8887e-04 1 1  ON 49
uuO_20 -2.6900e-04 1 1  ON 50
uuO_21 1.2352e-04 1 1  ON 51
uuO_22 -1.2250e-04 1 1  ON 52
uuO_23 2.0919e-04 1 1  ON 53
uuO_24 -3.0500e-05 1 1  ON 54
uuO_25 1.1435e-05 1 1  ON 55
udO_0 -4.2219e-04 1 1  ON 56
udO_1 5.6310e-04 1 1  ON 57
udO_2 1.4827e-03 1 1  ON 58
udO_3 -1.1193e-04 1 1  ON 59
udO_4 -4.5736e-04 1 1  ON 60
udO_5 6.1387e-05 1 1  ON 61
udO_6 1.5774e-03 1 1  ON 62
udO_7 -3.2062e-05 1 1  ON 63
udO_8 1.7717e-03 1 1  ON 64
udO_9 -6.1723e-04 1 1  ON 65
udO_10 -8.0850e-05 1 1  ON 66
udO_11 -9.9148e-04 1 1  ON 67
udO_12 -7.6401e-04 1 1  ON 68
udO_13 1.9193e-04 1 1  ON 69
udO_14 4.9539e-04 1 1  ON 70
udO_15 3.8741e-05 1 1  ON 71
udO_16 1.1026e-03 1 1  ON 72
udO_17 2.4849e-04 1 1  ON 73
udO_18 2.6875e-04 1 1  ON 74
udO_19 5.1098e-04 1 1  ON 75
udO_20 -5.1373e-04 1 1  ON 76
udO_21 -7.6992e-05 1 1  ON 77
udO_22 -6.3196e-05 1 1  ON 78
udO_23 3.7303e-04 1 1  ON 79
udO_24 -6.4731e-05 1 1  ON 80
udO_25 1.5384e-05 1 1  ON 81
  </optVariables>
   Restore the number of walkers to 1, removing 0 walkers.
</opt>
</optimization-report>
  QMC Execution time = 4.4859e+00 secs 
  Reusing QMCFixedSampleLinearOptimize
 Using QMCCostFunction::QMCCostFunction

=========================================================
  Start QMCFixedSampleLinearOptimize
  File Root O.log.s007 append = no 
=========================================================
  Skip QMCDriver::putQMCInfo 
  Resetting Properties of the walkers 1 x 13

=========================================================
  Start VMC
  File Root O.log.s007 append = no 
=========================================================
Using existing walkers 
  Resetting Properties of the walkers 1 x 13

<vmc function="put">
  qmc_counter=6  my_counter=6
  time step      = 1.5000e-01
  blocks         = 300
  steps          = 2
  substeps       = 5
  current        = 0
  target samples = 5.1200e+05
  walkers/mpi    = 1

  stepsbetweensamples = 1
<parameter name="blocks" condition="int">300</parameter>
<parameter name="blocks_between_recompute" condition="int">0</parameter>
<parameter name="check_properties" condition="int">100</parameter>
<parameter name="checkproperties" condition="int">100</parameter>
<parameter name="current" condition="int">0</parameter>
<parameter name="dmcwalkersperthread" condition="real">5.0000e+02</parameter>
<parameter name="maxcpusecs" condition="real">3.6000e+05</parameter>
<parameter name="record_configs" condition="int">0</parameter>
<parameter name="record_walkers" condition="int">1</parameter>
<parameter name="recordconfigs" condition="int">0</parameter>
<parameter name="recordwalkers" condition="int">1</parameter>
<parameter name="rewind" condition="int">0</parameter>
<parameter name="samples" condition="real">5.1200e+05</parameter>
<parameter name="samplesperthread" condition="real">5.0000e+02</parameter>
<parameter name="steps" condition="int">2</parameter>
<parameter name="stepsbetweensamples" condition="int">1</parameter>
<parameter name="store_configs" condition="int">0</parameter>
<parameter name="storeconfigs" condition="int">0</parameter>
<parameter name="sub_steps" condition="int">5</parameter>
<parameter name="substeps" condition="int">5</parameter>
<parameter name="tau" condition="au">1.5000e-01</parameter>
<parameter name="time_step" condition="au">1.5000e-01</parameter>
<parameter name="timestep" condition="au">1.5000e-01</parameter>
<parameter name="use_drift" condition="string">no</parameter>
<parameter name="usedrift" condition="string">no</parameter>
<parameter name="walkers" condition="int">1</parameter>
<parameter name="warmup_steps" condition="int">0</parameter>
<parameter name="warmupsteps" condition="int">0</parameter>
  DumpConfig==false Nothing (configurations, state) will be saved.
  Walker Samples are dumped every 1 steps.
</vmc>
  EstimatorManagerBase::add replace LocalEnergy estimator.
  EstimatorManagerBase::add replace LocalEnergy estimator.
<optimization-report>
<vmc stage="main" blocks="300">
  Cannot make clones again. Use existing 1 clones
  Initial partition of walkers 0 1 
  Using Particle by Particle moves
  Walker moves without drift
  Total Sample Size   =512000
  Walker distribution on root = 0 1 
  Using Locality Approximation
===== Memory Usage after the buffer registration =====
Available memory on node 0, free + buffers : 82541 MB
Memory footprint by rank 0 on node 0       : 102 MB
==================================================
====================================================
  SimpleFixedNodeBranch::finalize after a VMC block
    QMC counter        = 7
    time step          = 0.15
    reference energy   = -15.839
    reference variance = 0.190761
====================================================
  Execution time = 4.4182e+00
</vmc>
<opt stage="setup">
  <log>
   Reading configurations from h5FileRoot O.log.s007
  QMCCostFunction is created with 1 threads.
  Using Nonlocal PP in Opt: NonLocalECP
   Number of samples loaded to each thread : 500 
  VMC Eavg = -1.5860e+01
  VMC Evar = 2.0004e-01
  Total weights = 5.1200e+05
  Execution time = 8.8611e-01
  </log>
</opt>
<opt stage="main" walkers="512000">
  <log>

*****************************************
Building overlap and Hamiltonian matrices
*****************************************

Among totally 82 optimized parameters, largest LM parameter change : 2.8406e-02 at parameter 20

******************************************************************************
Init Cost =  -1.5057e+01    New Cost =  -1.5057e+01  Delta Cost =  -1.3962e-04
******************************************************************************

The new set of parameters is valid. Updating the trial wave function!

*****************************************************************************
Applying the update for shift_i =   1.0000e-02     and shift_s =   3.9062e-03
*****************************************************************************
  Execution time = 6.1504e+00
  </log>
  <optVariables href="O.log.s007.opt.xml">
uu_0 1.6888e-01 1 1  ON 0
uu_1 6.1884e-02 1 1  ON 1
uu_2 -4.0607e-03 1 1  ON 2
uu_3 -4.0451e-02 1 1  ON 3
uu_4 -6.6866e-02 1 1  ON 4
uu_5 -8.8470e-02 1 1  ON 5
uu_6 -9.8099e-02 1 1  ON 6
uu_7 -1.0366e-01 1 1  ON 7
uu_8 -9.6986e-02 1 1  ON 8
uu_9 -7.0986e-02 1 1  ON 9
ud_0 5.0368e-01 1 1  ON 10
ud_1 2.7757e-01 1 1  ON 11
ud_2 1.3705e-01 1 1  ON 12
ud_3 5.2046e-02 1 1  ON 13
ud_4 2.6910e-03 1 1  ON 14
ud_5 -2.8609e-02 1 1  ON 15
ud_6 -4.7248e-02 1 1  ON 16
ud_7 -6.4214e-02 1 1  ON 17
ud_8 -7.0720e-02 1 1  ON 18
ud_9 -5.8668e-02 1 1  ON 19
eO_0 -9.7347e-01 1 1  ON 20
eO_1 -9.3106e-01 1 1  ON 21
eO_2 -5.6060e-01 1 1  ON 22
eO_3 -4.6984e-02 1 1  ON 23
eO_4 3.0655e-01 1 1  ON 24
eO_5 3.6746e-01 1 1  ON 25
eO_6 4.4823e-01 1 1  ON 26
eO_7 4.8736e-01 1 1  ON 27
eO_8 4.4798e-01 1 1  ON 28
eO_9 3.0655e-01 1 1  ON 29
uuO_0 4.4938e-04 1 1  ON 30
uuO_1 2.1568e-04 1 1  ON 31
uuO_2 -9.2896e-04 1 1  ON 32
uuO_3 -7.6150e-04 1 1  ON 33
uuO_4 -3.5848e-04 1 1  ON 34
uuO_5 1.3780e-04 1 1  ON 35
uuO_6 -8.6558e-04 1 1  ON 36
uuO_7 1.7184e-04 1 1  ON 37
uuO_8 1.8666e-04 1 1  ON 38
uuO_9 4.4736e-04 1 1  ON 39
uuO_10 -9.4135e-04 1 1  ON 40
uuO_11 1.2279e-03 1 1  ON 41
uuO_12 -6.6656e-04 1 1  ON 42
uuO_13 1.0222e-03 1 1  ON 43
uuO_14 7.3368e-04 1 1  ON 44
uuO_15 -1.7218e-05 1 1  ON 45
uuO_16 -1.1502e-03 1 1  ON 46
uuO_17 3.1086e-03 1 1  ON 47
uuO_18 -2.4404e-03 1 1  ON 48
uuO_19 9.2712e-04 1 1  ON 49
uuO_20 -2.4074e-04 1 1  ON 50
uuO_21 3.5045e-05 1 1  ON 51
uuO_22 -9.6823e-05 1 1  ON 52
uuO_23 2.0226e-04 1 1  ON 53
uuO_24 3.6723e-06 1 1  ON 54
uuO_25 1.6969e-07 1 1  ON 55
udO_0 -4.3375e-04 1 1  ON 56
udO_1 5.8504e-04 1 1  ON 57
udO_2 1.5062e-03 1 1  ON 58
udO_3 -1.1805e-04 1 1  ON 59
udO_4 -4.6209e-04 1 1  ON 60
udO_5 6.3901e-05 1 1  ON 61
udO_6 1.6471e-03 1 1  ON 62
udO_7 -1.2991e-04 1 1  ON 63
udO_8 1.7725e-03 1 1  ON 64
udO_9 -6.3734e-04 1 1  ON 65
udO_10 -9.2344e-05 1 1  ON 66
udO_11 -9.4554e-04 1 1  ON 67
udO_12 -7.7174e-04 1 1  ON 68
udO_13 1.9254e-04 1 1  ON 69
udO_14 4.7893e-04 1 1  ON 70
udO_15 4.2361e-05 1 1  ON 71
udO_16 1.1336e-03 1 1  ON 72
udO_17 2.1302e-04 1 1  ON 73
udO_18 2.6169e-04 1 1  ON 74
udO_19 5.1627e-04 1 1  ON 75
udO_20 -5.0429e-04 1 1  ON 76
udO_21 -7.8862e-05 1 1  ON 77
udO_22 -6.2566e-05 1 1  ON 78
udO_23 3.6721e-04 1 1  ON 79
udO_24 -5.8973e-05 1 1  ON 80
udO_25 1.3387e-05 1 1  ON 81
  </optVariables>
   Restore the number of walkers to 1, removing 0 walkers.
</opt>
</optimization-report>
  QMC Execution time = 6.1637e+00 secs 
  Reusing QMCFixedSampleLinearOptimize
 Using QMCCostFunction::QMCCostFunction

=========================================================
  Start QMCFixedSampleLinearOptimize
  File Root O.log.s008 append = no 
=========================================================
  Skip QMCDriver::putQMCInfo 
  Resetting Properties of the walkers 1 x 13

=========================================================
  Start VMC
  File Root O.log.s008 append = no 
=========================================================
Using existing walkers 
  Resetting Properties of the walkers 1 x 13

<vmc function="put">
  qmc_counter=7  my_counter=7
  time step      = 1.5000e-01
  blocks         = 300
  steps          = 2
  substeps       = 5
  current        = 0
  target samples = 5.1200e+05
  walkers/mpi    = 1

  stepsbetweensamples = 1
<parameter name="blocks" condition="int">300</parameter>
<parameter name="blocks_between_recompute" condition="int">0</parameter>
<parameter name="check_properties" condition="int">100</parameter>
<parameter name="checkproperties" condition="int">100</parameter>
<parameter name="current" condition="int">0</parameter>
<parameter name="dmcwalkersperthread" condition="real">5.0000e+02</parameter>
<parameter name="maxcpusecs" condition="real">3.6000e+05</parameter>
<parameter name="record_configs" condition="int">0</parameter>
<parameter name="record_walkers" condition="int">1</parameter>
<parameter name="recordconfigs" condition="int">0</parameter>
<parameter name="recordwalkers" condition="int">1</parameter>
<parameter name="rewind" condition="int">0</parameter>
<parameter name="samples" condition="real">5.1200e+05</parameter>
<parameter name="samplesperthread" condition="real">5.0000e+02</parameter>
<parameter name="steps" condition="int">2</parameter>
<parameter name="stepsbetweensamples" condition="int">1</parameter>
<parameter name="store_configs" condition="int">0</parameter>
<parameter name="storeconfigs" condition="int">0</parameter>
<parameter name="sub_steps" condition="int">5</parameter>
<parameter name="substeps" condition="int">5</parameter>
<parameter name="tau" condition="au">1.5000e-01</parameter>
<parameter name="time_step" condition="au">1.5000e-01</parameter>
<parameter name="timestep" condition="au">1.5000e-01</parameter>
<parameter name="use_drift" condition="string">no</parameter>
<parameter name="usedrift" condition="string">no</parameter>
<parameter name="walkers" condition="int">1</parameter>
<parameter name="warmup_steps" condition="int">0</parameter>
<parameter name="warmupsteps" condition="int">0</parameter>
  DumpConfig==false Nothing (configurations, state) will be saved.
  Walker Samples are dumped every 1 steps.
</vmc>
  EstimatorManagerBase::add replace LocalEnergy estimator.
  EstimatorManagerBase::add replace LocalEnergy estimator.
<optimization-report>
<vmc stage="main" blocks="300">
  Cannot make clones again. Use existing 1 clones
  Initial partition of walkers 0 1 
  Using Particle by Particle moves
  Walker moves without drift
  Total Sample Size   =512000
  Walker distribution on root = 0 1 
  Using Locality Approximation
===== Memory Usage after the buffer registration =====
Available memory on node 0, free + buffers : 82538 MB
Memory footprint by rank 0 on node 0       : 105 MB
==================================================
====================================================
  SimpleFixedNodeBranch::finalize after a VMC block
    QMC counter        = 8
    time step          = 0.15
    reference energy   = -15.8809
    reference variance = 0.255808
====================================================
  Execution time = 2.8101e+00
</vmc>
<opt stage="setup">
  <log>
   Reading configurations from h5FileRoot O.log.s008
  QMCCostFunction is created with 1 threads.
  Using Nonlocal PP in Opt: NonLocalECP
   Number of samples loaded to each thread : 500 
  VMC Eavg = -1.5860e+01
  VMC Evar = 1.9933e-01
  Total weights = 5.1200e+05
  Execution time = 8.9290e-01
  </log>
</opt>
<opt stage="main" walkers="512000">
  <log>

*****************************************
Building overlap and Hamiltonian matrices
*****************************************

Among totally 82 optimized parameters, largest LM parameter change : 2.8285e-02 at parameter 20

******************************************************************************
Init Cost =  -1.5057e+01    New Cost =  -1.5057e+01  Delta Cost =   9.6232e-06
******************************************************************************

The new set of parameters is valid. Updating the trial wave function!

*****************************************************************************
Applying the update for shift_i =   1.0000e-02     and shift_s =   3.9062e-03
*****************************************************************************
  Execution time = 4.5443e+00
  </log>
  <optVariables href="O.log.s008.opt.xml">
uu_0 1.6937e-01 1 1  ON 0
uu_1 6.1936e-02 1 1  ON 1
uu_2 -4.3635e-03 1 1  ON 2
uu_3 -4.1610e-02 1 1  ON 3
uu_4 -6.8633e-02 1 1  ON 4
uu_5 -9.0415e-02 1 1  ON 5
uu_6 -1.0122e-01 1 1  ON 6
uu_7 -1.0758e-01 1 1  ON 7
uu_8 -1.0115e-01 1 1  ON 8
uu_9 -7.2499e-02 1 1  ON 9
ud_0 5.0658e-01 1 1  ON 10
ud_1 2.8019e-01 1 1  ON 11
ud_2 1.3878e-01 1 1  ON 12
ud_3 5.2425e-02 1 1  ON 13
ud_4 2.5069e-03 1 1  ON 14
ud_5 -2.8235e-02 1 1  ON 15
ud_6 -4.7516e-02 1 1  ON 16
ud_7 -6.5461e-02 1 1  ON 17
ud_8 -7.2299e-02 1 1  ON 18
ud_9 -6.1460e-02 1 1  ON 19
eO_0 -1.0018e+00 1 1  ON 20
eO_1 -9.5280e-01 1 1  ON 21
eO_2 -5.7962e-01 1 1  ON 22
eO_3 -6.3486e-02 1 1  ON 23
eO_4 2.9951e-01 1 1  ON 24
eO_5 3.7554e-01 1 1  ON 25
eO_6 4.5694e-01 1 1  ON 26
eO_7 5.0108e-01 1 1  ON 27
eO_8 4.6235e-01 1 1  ON 28
eO_9 3.2546e-01 1 1  ON 29
uuO_0 4.3316e-04 1 1  ON 30
uuO_1 2.4121e-04 1 1  ON 31
uuO_2 -8.3845e-04 1 1  ON 32
uuO_3 -7.3482e-04 1 1  ON 33
uuO_4 -3.6065e-04 1 1  ON 34
uuO_5 1.4192e-04 1 1  ON 35
uuO_6 -7.4958e-04 1 1  ON 36
uuO_7 1.4036e-04 1 1  ON 37
uuO_8 2.6633e-04 1 1  ON 38
uuO_9 3.6403e-04 1 1  ON 39
uuO_10 -9.0763e-04 1 1  ON 40
uuO_11 1.1219e-03 1 1  ON 41
uuO_12 -6.7953e-04 1 1  ON 42
uuO_13 1.0159e-03 1 1  ON 43
uuO_14 7.3461e-04 1 1  ON 44
uuO_15 -1.5136e-05 1 1  ON 45
uuO_16 -1.0030e-03 1 1  ON 46
uuO_17 2.9975e-03 1 1  ON 47
uuO_18 -2.2984e-03 1 1  ON 48
uuO_19 9.1392e-04 1 1  ON 49
uuO_20 -2.7988e-04 1 1  ON 50
uuO_21 1.9321e-05 1 1  ON 51
uuO_22 -9.4266e-05 1 1  ON 52
uuO_23 2.2146e-04 1 1  ON 53
uuO_24 2.7327e-06 1 1  ON 54
uuO_25 3.2051e-07 1 1  ON 55
udO_0 -4.4258e-04 1 1  ON 56
udO_1 5.9352e-04 1 1  ON 57
udO_2 1.5428e-03 1 1  ON 58
udO_3 -9.0375e-05 1 1  ON 59
udO_4 -4.4940e-04 1 1  ON 60
udO_5 6.6546e-05 1 1  ON 61
udO_6 1.7130e-03 1 1  ON 62
udO_7 -1.4265e-04 1 1  ON 63
udO_8 1.7702e-03 1 1  ON 64
udO_9 -6.8516e-04 1 1  ON 65
udO_10 -6.1218e-05 1 1  ON 66
udO_11 -1.0017e-03 1 1  ON 67
udO_12 -7.5173e-04 1 1  ON 68
udO_13 1.5532e-04 1 1  ON 69
udO_14 4.5714e-04 1 1  ON 70
udO_15 4.2638e-05 1 1  ON 71
udO_16 1.2668e-03 1 1  ON 72
udO_17 7.5411e-05 1 1  ON 73
udO_18 3.6876e-04 1 1  ON 74
udO_19 4.8456e-04 1 1  ON 75
udO_20 -5.2287e-04 1 1  ON 76
udO_21 -8.1446e-05 1 1  ON 77
udO_22 -5.9262e-05 1 1  ON 78
udO_23 3.7483e-04 1 1  ON 79
udO_24 -6.1170e-05 1 1  ON 80
udO_25 1.3784e-05 1 1  ON 81
  </optVariables>
   Restore the number of walkers to 1, removing 0 walkers.
</opt>
</optimization-report>
  QMC Execution time = 4.5577e+00 secs 
  Reusing QMCFixedSampleLinearOptimize
 Using QMCCostFunction::QMCCostFunction

=========================================================
  Start QMCFixedSampleLinearOptimize
  File Root O.log.s009 append = no 
=========================================================
  Skip QMCDriver::putQMCInfo 
  Resetting Properties of the walkers 1 x 13

=========================================================
  Start VMC
  File Root O.log.s009 append = no 
=========================================================
Using existing walkers 
  Resetting Properties of the walkers 1 x 13

<vmc function="put">
  qmc_counter=8  my_counter=8
  time step      = 1.5000e-01
  blocks         = 300
  steps          = 2
  substeps       = 5
  current        = 0
  target samples = 5.1200e+05
  walkers/mpi    = 1

  stepsbetweensamples = 1
<parameter name="blocks" condition="int">300</parameter>
<parameter name="blocks_between_recompute" condition="int">0</parameter>
<parameter name="check_properties" condition="int">100</parameter>
<parameter name="checkproperties" condition="int">100</parameter>
<parameter name="current" condition="int">0</parameter>
<parameter name="dmcwalkersperthread" condition="real">5.0000e+02</parameter>
<parameter name="maxcpusecs" condition="real">3.6000e+05</parameter>
<parameter name="record_configs" condition="int">0</parameter>
<parameter name="record_walkers" condition="int">1</parameter>
<parameter name="recordconfigs" condition="int">0</parameter>
<parameter name="recordwalkers" condition="int">1</parameter>
<parameter name="rewind" condition="int">0</parameter>
<parameter name="samples" condition="real">5.1200e+05</parameter>
<parameter name="samplesperthread" condition="real">5.0000e+02</parameter>
<parameter name="steps" condition="int">2</parameter>
<parameter name="stepsbetweensamples" condition="int">1</parameter>
<parameter name="store_configs" condition="int">0</parameter>
<parameter name="storeconfigs" condition="int">0</parameter>
<parameter name="sub_steps" condition="int">5</parameter>
<parameter name="substeps" condition="int">5</parameter>
<parameter name="tau" condition="au">1.5000e-01</parameter>
<parameter name="time_step" condition="au">1.5000e-01</parameter>
<parameter name="timestep" condition="au">1.5000e-01</parameter>
<parameter name="use_drift" condition="string">no</parameter>
<parameter name="usedrift" condition="string">no</parameter>
<parameter name="walkers" condition="int">1</parameter>
<parameter name="warmup_steps" condition="int">0</parameter>
<parameter name="warmupsteps" condition="int">0</parameter>
  DumpConfig==false Nothing (configurations, state) will be saved.
  Walker Samples are dumped every 1 steps.
</vmc>
  EstimatorManagerBase::add replace LocalEnergy estimator.
  EstimatorManagerBase::add replace LocalEnergy estimator.
<optimization-report>
<vmc stage="main" blocks="300">
  Cannot make clones again. Use existing 1 clones
  Initial partition of walkers 0 1 
  Using Particle by Particle moves
  Walker moves without drift
  Total Sample Size   =512000
  Walker distribution on root = 0 1 
  Using Locality Approximation
===== Memory Usage after the buffer registration =====
Available memory on node 0, free + buffers : 82536 MB
Memory footprint by rank 0 on node 0       : 107 MB
==================================================
====================================================
  SimpleFixedNodeBranch::finalize after a VMC block
    QMC counter        = 9
    time step          = 0.15
    reference energy   = -15.8668
    reference variance = 0.170261
====================================================
  Execution time = 2.7020e+00
</vmc>
<opt stage="setup">
  <log>
   Reading configurations from h5FileRoot O.log.s009
  QMCCostFunction is created with 1 threads.
  Using Nonlocal PP in Opt: NonLocalECP
   Number of samples loaded to each thread : 500 
  VMC Eavg = -1.5859e+01
  VMC Evar = 2.0874e-01
  Total weights = 5.1200e+05
  Execution time = 8.7414e-01
  </log>
</opt>
<opt stage="main" walkers="512000">
  <log>

*****************************************
Building overlap and Hamiltonian matrices
*****************************************

Among totally 82 optimized parameters, largest LM parameter change : 2.3749e-02 at parameter 20

******************************************************************************
Init Cost =  -1.5056e+01    New Cost =  -1.5056e+01  Delta Cost =  -1.0506e-04
******************************************************************************

The new set of parameters is valid. Updating the trial wave function!

*****************************************************************************
Applying the update for shift_i =   1.0000e-02     and shift_s =   3.9062e-03
*****************************************************************************
  Execution time = 4.4421e+00
  </log>
  <optVariables href="O.log.s009.opt.xml">
uu_0 1.7011e-01 1 1  ON 0
uu_1 6.1894e-02 1 1  ON 1
uu_2 -4.5921e-03 1 1  ON 2
uu_3 -4.1576e-02 1 1  ON 3
uu_4 -6.9060e-02 1 1  ON 4
uu_5 -9.2025e-02 1 1  ON 5
uu_6 -1.0310e-01 1 1  ON 6
uu_7 -1.0948e-01 1 1  ON 7
uu_8 -1.0328e-01 1 1  ON 8
uu_9 -7.6635e-02 1 1  ON 9
ud_0 5.0848e-01 1 1  ON 10
ud_1 2.8130e-01 1 1  ON 11
ud_2 1.3891e-01 1 1  ON 12
ud_3 5.1759e-02 1 1  ON 13
ud_4 1.4721e-03 1 1  ON 14
ud_5 -2.9266e-02 1 1  ON 15
ud_6 -4.8619e-02 1 1  ON 16
ud_7 -6.6333e-02 1 1  ON 17
ud_8 -7.3620e-02 1 1  ON 18
ud_9 -6.1554e-02 1 1  ON 19
eO_0 -1.0255e+00 1 1  ON 20
eO_1 -9.7313e-01 1 1  ON 21
eO_2 -6.0038e-01 1 1  ON 22
eO_3 -8.0373e-02 1 1  ON 23
eO_4 2.9301e-01 1 1  ON 24
eO_5 3.8192e-01 1 1  ON 25
eO_6 4.6240e-01 1 1  ON 26
eO_7 5.1439e-01 1 1  ON 27
eO_8 4.7743e-01 1 1  ON 28
eO_9 3.4142e-01 1 1  ON 29
uuO_0 4.4204e-04 1 1  ON 30
uuO_1 2.2046e-04 1 1  ON 31
uuO_2 -9.0923e-04 1 1  ON 32
uuO_3 -7.2036e-04 1 1  ON 33
uuO_4 -3.3285e-04 1 1  ON 34
uuO_5 1.4535e-04 1 1  ON 35
uuO_6 -8.0778e-04 1 1  ON 36
uuO_7 1.0370e-04 1 1  ON 37
uuO_8 9.4703e-05 1 1  ON 38
uuO_9 4.0961e-04 1 1  ON 39
uuO_10 -8.9890e-04 1 1  ON 40
uuO_11 1.2488e-03 1 1  ON 41
uuO_12 -6.0565e-04 1 1  ON 42
uuO_13 9.6343e-04 1 1  ON 43
uuO_14 6.5502e-04 1 1  ON 44
uuO_15 -1.3514e-05 1 1  ON 45
uuO_16 -1.0324e-03 1 1  ON 46
uuO_17 2.8971e-03 1 1  ON 47
uuO_18 -2.3777e-03 1 1  ON 48
uuO_19 8.8116e-04 1 1  ON 49
uuO_20 -2.3330e-04 1 1  ON 50
uuO_21 5.6693e-05 1 1  ON 51
uuO_22 -9.6961e-05 1 1  ON 52
uuO_23 2.0565e-04 1 1  ON 53
uuO_24 -4.3308e-06 1 1  ON 54
uuO_25 2.2224e-06 1 1  ON 55
udO_0 -4.5485e-04 1 1  ON 56
udO_1 5.6364e-04 1 1  ON 57
udO_2 1.5396e-03 1 1  ON 58
udO_3 -6.5933e-05 1 1  ON 59
udO_4 -4.2898e-04 1 1  ON 60
udO_5 6.9720e-05 1 1  ON 61
udO_6 1.6498e-03 1 1  ON 62
udO_7 -1.6889e-04 1 1  ON 63
udO_8 1.7362e-03 1 1  ON 64
udO_9 -6.1581e-04 1 1  ON 65
udO_10 -2.2769e-05 1 1  ON 66
udO_11 -9.8681e-04 1 1  ON 67
udO_12 -7.3841e-04 1 1  ON 68
udO_13 1.1259e-04 1 1  ON 69
udO_14 4.4145e-04 1 1  ON 70
udO_15 4.3613e-05 1 1  ON 71
udO_16 1.1183e-03 1 1  ON 72
udO_17 3.8239e-05 1 1  ON 73
udO_18 3.8861e-04 1 1  ON 74
udO_19 4.7781e-04 1 1  ON 75
udO_20 -4.5552e-04 1 1  ON 76
udO_21 -9.2783e-05 1 1  ON 77
udO_22 -5.7223e-05 1 1  ON 78
udO_23 3.4891e-04 1 1  ON 79
udO_24 -5.2356e-05 1 1  ON 80
udO_25 1.2097e-05 1 1  ON 81
  </optVariables>
   Restore the number of walkers to 1, removing 0 walkers.
</opt>
</optimization-report>
  QMC Execution time = 4.4562e+00 secs 
  Reusing QMCFixedSampleLinearOptimize
 Using QMCCostFunction::QMCCostFunction

=========================================================
  Start QMCFixedSampleLinearOptimize
  File Root O.log.s010 append = no 
=========================================================
  Skip QMCDriver::putQMCInfo 
  Resetting Properties of the walkers 1 x 13

=========================================================
  Start VMC
  File Root O.log.s010 append = no 
=========================================================
Using existing walkers 
  Resetting Properties of the walkers 1 x 13

<vmc function="put">
  qmc_counter=9  my_counter=9
  time step      = 1.5000e-01
  blocks         = 300
  steps          = 2
  substeps       = 5
  current        = 0
  target samples = 5.1200e+05
  walkers/mpi    = 1

  stepsbetweensamples = 1
<parameter name="blocks" condition="int">300</parameter>
<parameter name="blocks_between_recompute" condition="int">0</parameter>
<parameter name="check_properties" condition="int">100</parameter>
[...]
  SimpleFixedNodeBranch::finalize after a VMC block
    QMC counter        = 20
    time step          = 0.15
    reference energy   = -15.8441
    reference variance = 0.141022
====================================================
  Execution time = 2.4931e+00
</vmc>
<opt stage="setup">
  <log>
   Reading configurations from h5FileRoot O.log.s020
  QMCCostFunction is created with 1 threads.
  Using Nonlocal PP in Opt: NonLocalECP
   Number of samples loaded to each thread : 500 
  VMC Eavg = -1.5859e+01
  VMC Evar = 1.9153e-01
  Total weights = 5.1200e+05
  Execution time = 6.8313e-01
  </log>
</opt>
<opt stage="main" walkers="512000">
  <log>

*****************************************
Building overlap and Hamiltonian matrices
*****************************************

Among totally 82 optimized parameters, largest LM parameter change : 9.8332e+01 at parameter 20

******************************************************************************
Init Cost =  -1.5057e+01    New Cost =   8.6576e+01  Delta Cost =   1.0163e+02
******************************************************************************

The new set of parameters is not valid. Revert to the old set!

*****************************************************************************
Applying the update for shift_i =   1.0000e-02     and shift_s =   1.5625e-02
*****************************************************************************
  Execution time = 3.5159e+00
  </log>
  <optVariables href="O.log.s020.opt.xml">
uu_0 1.7556e-01 1 1  ON 0
uu_1 6.8989e-02 1 1  ON 1
uu_2 1.4407e-03 1 1  ON 2
uu_3 -3.8911e-02 1 1  ON 3
uu_4 -6.8739e-02 1 1  ON 4
uu_5 -9.3810e-02 1 1  ON 5
uu_6 -1.0696e-01 1 1  ON 6
uu_7 -1.1566e-01 1 1  ON 7
uu_8 -1.1271e-01 1 1  ON 8
uu_9 -9.1840e-02 1 1  ON 9
ud_0 5.2721e-01 1 1  ON 10
ud_1 3.0022e-01 1 1  ON 11
ud_2 1.5672e-01 1 1  ON 12
ud_3 6.7469e-02 1 1  ON 13
ud_4 1.5566e-02 1 1  ON 14
ud_5 -1.7209e-02 1 1  ON 15
ud_6 -3.8830e-02 1 1  ON 16
ud_7 -5.9514e-02 1 1  ON 17
ud_8 -7.1674e-02 1 1  ON 18
ud_9 -6.7382e-02 1 1  ON 19
eO_0 -1.1881e+00 1 1  ON 20
eO_1 -1.1090e+00 1 1  ON 21
eO_2 -7.3622e-01 1 1  ON 22
eO_3 -1.9811e-01 1 1  ON 23
eO_4 2.3786e-01 1 1  ON 24
eO_5 4.2003e-01 1 1  ON 25
eO_6 5.0105e-01 1 1  ON 26
eO_7 5.6963e-01 1 1  ON 27
eO_8 5.4708e-01 1 1  ON 28
eO_9 4.3536e-01 1 1  ON 29
uuO_0 3.9571e-04 1 1  ON 30
uuO_1 1.9906e-04 1 1  ON 31
uuO_2 -7.6479e-04 1 1  ON 32
uuO_3 -6.5373e-04 1 1  ON 33
uuO_4 -3.1242e-04 1 1  ON 34
uuO_5 1.6952e-04 1 1  ON 35
uuO_6 -7.5341e-04 1 1  ON 36
uuO_7 5.4491e-05 1 1  ON 37
uuO_8 2.3079e-04 1 1  ON 38
uuO_9 3.9682e-04 1 1  ON 39
uuO_10 -8.1113e-04 1 1  ON 40
uuO_11 1.0187e-03 1 1  ON 41
uuO_12 -6.1338e-04 1 1  ON 42
uuO_13 9.0786e-04 1 1  ON 43
uuO_14 6.3031e-04 1 1  ON 44
uuO_15 -5.7746e-06 1 1  ON 45
uuO_16 -9.4314e-04 1 1  ON 46
uuO_17 2.5948e-03 1 1  ON 47
uuO_18 -1.9433e-03 1 1  ON 48
uuO_19 8.0559e-04 1 1  ON 49
uuO_20 -2.2728e-04 1 1  ON 50
uuO_21 -1.1888e-05 1 1  ON 51
uuO_22 -7.9946e-05 1 1  ON 52
uuO_23 2.1807e-04 1 1  ON 53
uuO_24 1.7668e-05 1 1  ON 54
uuO_25 -3.3526e-06 1 1  ON 55
udO_0 -4.8358e-04 1 1  ON 56
udO_1 5.7345e-04 1 1  ON 57
udO_2 1.6668e-03 1 1  ON 58
udO_3 -9.7000e-06 1 1  ON 59
udO_4 -4.1468e-04 1 1  ON 60
udO_5 9.5124e-05 1 1  ON 61
udO_6 1.7559e-03 1 1  ON 62
udO_7 -1.8981e-04 1 1  ON 63
udO_8 1.8481e-03 1 1  ON 64
udO_9 -6.8081e-04 1 1  ON 65
udO_10 3.6938e-05 1 1  ON 66
udO_11 -1.2218e-03 1 1  ON 67
udO_12 -7.2554e-04 1 1  ON 68
udO_13 5.9640e-05 1 1  ON 69
udO_14 3.9606e-04 1 1  ON 70
udO_15 5.1533e-05 1 1  ON 71
udO_16 1.3256e-03 1 1  ON 72
udO_17 -3.2350e-04 1 1  ON 73
udO_18 8.4835e-04 1 1  ON 74
udO_19 3.8227e-04 1 1  ON 75
udO_20 -4.6306e-04 1 1  ON 76
udO_21 -1.5081e-04 1 1  ON 77
udO_22 -4.0260e-05 1 1  ON 78
udO_23 3.6882e-04 1 1  ON 79
udO_24 -3.8799e-05 1 1  ON 80
udO_25 8.5576e-06 1 1  ON 81
  </optVariables>
   Restore the number of walkers to 1, removing 0 walkers.
</opt>
</optimization-report>
  QMC Execution time = 3.5290e+00 secs 

=========================================================
  Start VMC
  File Root O.log.s021 append = no 
=========================================================
  Using the current 1 walkers.
  Total number of walkers: 1.0240e+03
  Total weight: 1.0240e+03
  Resetting Properties of the walkers 1 x 13

<vmc function="put">
  qmc_counter=0  my_counter=0
  time step      = 1.5000e-01
  blocks         = 200
  steps          = 1
  substeps       = 30
  current        = 0
  target samples = 4.0960e+03
  walkers/mpi    = 1

  stepsbetweensamples = 50
<parameter name="blocks" condition="int">200</parameter>
<parameter name="blocks_between_recompute" condition="int">0</parameter>
<parameter name="check_properties" condition="int">100</parameter>
<parameter name="checkproperties" condition="int">100</parameter>
<parameter name="current" condition="int">0</parameter>
<parameter name="dmcwalkersperthread" condition="real">4.0000e+00</parameter>
<parameter name="maxcpusecs" condition="real">3.6000e+05</parameter>
<parameter name="record_configs" condition="int">0</parameter>
<parameter name="record_walkers" condition="int">50</parameter>
<parameter name="recordconfigs" condition="int">0</parameter>
<parameter name="recordwalkers" condition="int">50</parameter>
<parameter name="rewind" condition="int">0</parameter>
<parameter name="samples" condition="real">4.0960e+03</parameter>
<parameter name="samplesperthread" condition="real">4.0000e+00</parameter>
<parameter name="steps" condition="int">1</parameter>
<parameter name="stepsbetweensamples" condition="int">50</parameter>
<parameter name="store_configs" condition="int">0</parameter>
<parameter name="storeconfigs" condition="int">0</parameter>
<parameter name="sub_steps" condition="int">30</parameter>
<parameter name="substeps" condition="int">30</parameter>
<parameter name="tau" condition="au">1.5000e-01</parameter>
<parameter name="time_step" condition="au">1.5000e-01</parameter>
<parameter name="timestep" condition="au">1.5000e-01</parameter>
<parameter name="use_drift" condition="string">no</parameter>
<parameter name="usedrift" condition="string">no</parameter>
<parameter name="walkers" condition="int">1</parameter>
<parameter name="warmup_steps" condition="int">100</parameter>
<parameter name="warmupsteps" condition="int">100</parameter>
  DumpConfig==false Nothing (configurations, state) will be saved.
  Walker Samples are dumped every 50 steps.
</vmc>
  EstimatorManagerBase::add replace LocalEnergy estimator.
  Cannot make clones again. Use existing 1 clones
  Initial partition of walkers 0 1 

  Using Particle by Particle moves
  Walker moves without drift
  Total Sample Size   =4096
  Walker distribution on root = 0 1 
  Using Locality Approximation
===== Memory Usage after the buffer registration =====
Available memory on node 0, free + buffers : 82495 MB
Memory footprint by rank 0 on node 0       : 134 MB
==================================================
  Anonymous Buffer size per walker : 2336 Bytes.
MEMORY increase 0 MB VMC::resetRun
====================================================
  SimpleFixedNodeBranch::finalize after a VMC block
    QMC counter        = 21
    time step          = 0.15
    reference energy   = -15.8737
    reference variance = 0.148046
====================================================
  QMC Execution time = 2.6458e+00 secs 

=========================================================
  Start DMC
  File Root O.log.s022 append = no 
=========================================================
Using existing walkers 
  Resetting Properties of the walkers 1 x 13
  EstimatorManagerBase::add replace LocalEnergy estimator.
  Cannot make clones again. Use existing 1 clones
  Total number of walkers: 4.0960e+03
  Total weight: 4.0960e+03
  Creating WalkerController: target  number of walkers = 4096
  Using WalkerControlMPI for dynamic population control.
  START ALL OVER 
  WalkerControlBase parameters 
    maxCopy = 2
    Max Walkers per MPI rank 9
    Min Walkers per MPI rank 1
    Using non-blocking send/recv
  QMC counter      = 22
  time step        = 2.0000e-02
  effective time step = 2.0000e-02
  trial energy     = -1.5874e+01
  reference energy = -1.5874e+01
  Feedback = 1.0000e+00
  reference variance = 1.4805e-01
  target walkers = 4096
  branching cutoff scheme classic
  branch cutoff = 5.0000e+01 7.5000e+01
  Max and minimum walkers per node= 9 1
  QMC Status (BranchMode) = 0000001101
  Initial partition of walkers on a node: 0 4 
  Updates by particle-by-particle moves
  DMC moves are rejected when a node crossing is detected
  Using Non-local T-moves v3, an approximation to v1
===== Memory Usage after the buffer registration =====
Available memory on node 0, free + buffers : 82495 MB
Memory footprint by rank 0 on node 0       : 134 MB
==================================================
SimpleFixedNodeBranch::checkParameters 
  Average Energy of a population  = -15.8616
  Energy Variance = 0.231368

  Fluctuating population
  Persistent walkers are killed after 1 MC sweeps
  BranchInterval = 1
  Steps per block = 50
  Number of blocks = 70

  DMC Engine Initialization = 3.9991e-02 secs 

 Warmup is completed after 100

  TauEff     = 1.9356e-02
 TauEff/Tau = 9.6781e-01
  Etrial     = -1.5853e+01
 Running average of energy = -1.5872e+01
                  Variance = 2.2323e-01
branch cutoff = 1.0000e+01 1.5000e+01
====================================================
  SimpleFixedNodeBranch::finalize after a DMC block
    QMC counter                   = 22
    time step                     = 0.02
    effective time step           = 0.0193532
    trial energy                  = -15.8656
    reference energy              = -15.8725
    reference variance            = 0.223229
    target walkers                = 4096
    branch cutoff                 = 10 15
    Max and minimum walkers per node= 9 1
    Feedback                      = 1
    QMC Status (BranchMode)       = 0000001111
====================================================
  QMC Execution time = 3.5992e+01 secs 
  Reusing DMC
BRANCH resetRun
 SimpleFixedNodeBranch::resetRun detected changes in <parameter>'s 
 BranchMode : 0000001111 0000001111
  WalkerControlBase parameters 
    maxCopy = 2
    Max Walkers per MPI rank 9
    Min Walkers per MPI rank 1
    Using non-blocking send/recv
 iParam (old):                  0                 1                22              4096                 9                 1                 1                 0
 iParam (new):                100                 1                22              4096                 9                 1                 1                 0
 vParam (old):   2.0000000000e-02  1.9353188442e-02 -1.5865637906e+01 -1.5872497316e+01 -1.5865416448e+01  1.5000000000e+01  1.0000000000e+01  2.0000000000e-01  2.2322947385e-01 -5.3982356291e+04  3.4010000000e+03  1.0000000000e+00  1.0000000000e+01  1.0000000000e+00  1.0000000000e+00  1.0000000000e+00  1.0000000000e+00
 vParam (new):   1.0000000000e-02  1.9353188442e-02 -1.5865637906e+01 -1.5872497316e+01 -1.5865416448e+01  1.5000000000e+01  1.0000000000e+01  2.0000000000e-01  2.2322947385e-01 -5.3982356291e+04  3.4010000000e+03  1.0000000000e+00  1.0000000000e+01  1.0000000000e+00  1.0000000000e+00  1.0000000000e+00  1.0000000000e+00

 Using branching cutoff scheme classic
SimpleFixedNodeBranch::checkParameters 
  Average Energy of a population  = -15.8664
  Energy Variance = 0.465403

  Using Non-local T-moves v3, an approximation to v1
===== Memory Usage after the buffer registration =====
Available memory on node 0, free + buffers : 82487 MB
Memory footprint by rank 0 on node 0       : 136 MB
==================================================

=========================================================
  Start DMC
  File Root O.log.s023 append = no 
=========================================================
Using existing walkers 
  Resetting Properties of the walkers 1 x 13
  EstimatorManagerBase::add replace LocalEnergy estimator.
  Cannot make clones again. Use existing 1 clones
SimpleFixedNodeBranch::checkParameters 
  Average Energy of a population  = -15.866
  Energy Variance = 0.372535

  Fluctuating population
  Persistent walkers are killed after 1 MC sweeps
  BranchInterval = 1
  Steps per block = 100
  Number of blocks = 90

  DMC Engine Initialization = 6.2489509583e-04 secs 

 Warmup is completed after 100

  TauEff     = 9.8644362235e-03
 TauEff/Tau = 9.8644362235e-01
  Etrial     = -1.5969225064e+01
 Running average of energy = -1.5870340625e+01
                  Variance = 2.0804824932e-01
branch cutoff = 1.0000000000e+01 1.5000000000e+01
====================================================
  SimpleFixedNodeBranch::finalize after a DMC block
    QMC counter                   = 23
    time step                     = 0.01
    effective time step           = 0.00986457
    trial energy                  = -15.8704
    reference energy              = -15.8706
    reference variance            = 0.208048
    target walkers                = 4096
    branch cutoff                 = 10 15
    Max and minimum walkers per node= 9 1
    Feedback                      = 1
    QMC Status (BranchMode)       = 0000001111
====================================================
  QMC Execution time = 9.1495e+01 secs 
  Reusing DMC
BRANCH resetRun
 SimpleFixedNodeBranch::resetRun detected changes in <parameter>'s 
 BranchMode : 0000001111 0000001111
  WalkerControlBase parameters 
    maxCopy = 2
    Max Walkers per MPI rank 9
    Min Walkers per MPI rank 1
    Using non-blocking send/recv
 iParam (old):                  0                 1                23              4096                 9                 1                 1                 0
 iParam (new):                200                 1                23              4096                 9                 1                 1                 0
 vParam (old):   1.0000000000e-02  9.8645748507e-03 -1.5870400686e+01 -1.5870644857e+01 -1.5875834452e+01  1.5000000000e+01  1.0000000000e+01  2.0000000000e-01  2.0804824932e-01 -1.4126461506e+05  8.9010000000e+03  1.0000000000e+00  1.0000000000e+01  1.0000000000e+00  1.0000000000e+00  1.0000000000e+00  1.0000000000e+00
 vParam (new):   5.0000000000e-03  9.8645748507e-03 -1.5870400686e+01 -1.5870644857e+01 -1.5875834452e+01  1.5000000000e+01  1.0000000000e+01  2.0000000000e-01  2.0804824932e-01 -1.4126461506e+05  8.9010000000e+03  1.0000000000e+00  1.0000000000e+01  1.0000000000e+00  1.0000000000e+00  1.0000000000e+00  1.0000000000e+00

 Using branching cutoff scheme classic
SimpleFixedNodeBranch::checkParameters 
  Average Energy of a population  = -15.8753
  Energy Variance = 0.217503

  Using Non-local T-moves v3, an approximation to v1
===== Memory Usage after the buffer registration =====
Available memory on node 0, free + buffers : 82478 MB
Memory footprint by rank 0 on node 0       : 138 MB
==================================================

=========================================================
  Start DMC
  File Root O.log.s024 append = no 
=========================================================
Using existing walkers 
  Resetting Properties of the walkers 1 x 13
  EstimatorManagerBase::add replace LocalEnergy estimator.
  Cannot make clones again. Use existing 1 clones
SimpleFixedNodeBranch::checkParameters 
  Average Energy of a population  = -15.8757
  Energy Variance = 0.225208

  Fluctuating population
  Persistent walkers are killed after 1 MC sweeps
  BranchInterval = 1
  Steps per block = 200
  Number of blocks = 110

  DMC Engine Initialization = 2.8300285339e-04 secs 

 Warmup is completed after 200

  TauEff     = 4.9724121098e-03
 TauEff/Tau = 9.9448242195e-01
  Etrial     = -1.5870199505e+01
 Running average of energy = -1.5869465355e+01
                  Variance = 2.1123742494e-01
branch cutoff = 1.0000000000e+01 1.5000000000e+01
====================================================
  SimpleFixedNodeBranch::finalize after a DMC block
    QMC counter                   = 24
    time step                     = 0.005
    effective time step           = 0.00497256
    trial energy                  = -15.8656
    reference energy              = -15.8707
    reference variance            = 0.211237
    target walkers                = 4096
    branch cutoff                 = 10 15
    Max and minimum walkers per node= 9 1
    Feedback                      = 1
    QMC Status (BranchMode)       = 0000001111
====================================================
  QMC Execution time = 2.2364e+02 secs 
  Reusing DMC
BRANCH resetRun
 SimpleFixedNodeBranch::resetRun detected changes in <parameter>'s 
 BranchMode : 0000001111 0000001111
  WalkerControlBase parameters 
    maxCopy = 2
    Max Walkers per MPI rank 9
    Min Walkers per MPI rank 1
    Using non-blocking send/recv
 iParam (old):                  0                 1                24              4096                 9                 1                 1                 0
 iParam (new):                400                 1                24              4096                 9                 1                 1                 0
 vParam (old):   5.0000000000e-03  4.9725612164e-03 -1.5865605154e+01 -1.5870745295e+01 -1.5856681906e+01  1.5000000000e+01  1.0000000000e+01  2.0000000000e-01  2.1123742494e-01 -3.4599810411e+05  2.1801000000e+04  1.0000000000e+00  1.0000000000e+01  1.0000000000e+00  1.0000000000e+00  1.0000000000e+00  1.0000000000e+00
 vParam (new):   2.5000000000e-03  4.9725612164e-03 -1.5865605154e+01 -1.5870745295e+01 -1.5856681906e+01  1.5000000000e+01  1.0000000000e+01  2.0000000000e-01  2.1123742494e-01 -3.4599810411e+05  2.1801000000e+04  1.0000000000e+00  1.0000000000e+01  1.0000000000e+00  1.0000000000e+00  1.0000000000e+00  1.0000000000e+00

 Using branching cutoff scheme classic
SimpleFixedNodeBranch::checkParameters 
  Average Energy of a population  = -15.8561
  Energy Variance = 0.297714

  Using Non-local T-moves v3, an approximation to v1
===== Memory Usage after the buffer registration =====
Available memory on node 0, free + buffers : 82466 MB
Memory footprint by rank 0 on node 0       : 140 MB
==================================================

=========================================================
  Start DMC
  File Root O.log.s025 append = no 
=========================================================
Using existing walkers 
  Resetting Properties of the walkers 1 x 13
  EstimatorManagerBase::add replace LocalEnergy estimator.
  Cannot make clones again. Use existing 1 clones
SimpleFixedNodeBranch::checkParameters 
  Average Energy of a population  = -15.8549
  Energy Variance = 0.315866

  Fluctuating population
  Persistent walkers are killed after 1 MC sweeps
  BranchInterval = 1
  Steps per block = 400
  Number of blocks = 130

  DMC Engine Initialization = 2.9110908508e-04 secs 

 Warmup is completed after 400

  TauEff     = 2.4943902003e-03
 TauEff/Tau = 9.9775608011e-01
  Etrial     = -1.5774678331e+01
 Running average of energy = -1.5868586339e+01
                  Variance = 2.0795848735e-01
branch cutoff = 1.0000000000e+01 1.5000000000e+01
====================================================
  SimpleFixedNodeBranch::finalize after a DMC block
    QMC counter                   = 25
    time step                     = 0.0025
    effective time step           = 0.00249453
    trial energy                  = -15.8775
    reference energy              = -15.8702
    reference variance            = 0.207958
    target walkers                = 4096
    branch cutoff                 = 10 15
    Max and minimum walkers per node= 9 1
    Feedback                      = 1
    QMC Status (BranchMode)       = 0000001111
====================================================
  QMC Execution time = 5.2698e+02 secs 
  Total Execution time = 9.7193e+02 secs

=========================================================
  A new xml input file : O.log.s025.cont.xml
TACC:  Shutdown complete. Exiting. 
