
 Primary working directories    : /global/cscratch1/sd/aannabe
 Secondary working directories  : /global/cscratch1/sd/aannabe
 Wavefunction directory         : /global/homes/a/aannabe/wfu/
 Main file repository           : /global/cscratch1/sd/aannabe/

 SHA1      : 2873118e99aab1bc19f5b6fc1784693c06d15c95
 NAME      : 2015.1.8
 ARCHNAME  : linux/x86_64
 FC        : /opt/cray/pe/craype/2.5.5/bin/ftn
 BLASLIB   : -Wl,-_start-group /opt/intel/compilers_and_libraries_2016.3.210/linux/mkl/lib/intel64/libmkl_intel_ilp64.a /opt/intel/compilers_and_libraries_2016.3.210/linux/mkl/lib/intel64/libmkl_intel_thread.a /opt/intel/compilers_and_libraries_2016.3.210/linux/mkl/lib/intel64/libmkl_core.a -Wl,-_end-group
 id        : lbl

 Nodes     nprocs
 nid00499     1

 Using customized tuning parameters: mindgm=8; mindgv=16; mindgc=4; mindgr=1; noblas=0; minvec=7
 default implementation of scratch files=df  

 ***,Sc
 memory,512,m
 gthresh,twoint=1.e-12
 
 gprint,basis,orbitals
 gexpec,ekin,pot
 
 angstrom
 geometry={
 1                                                                               ! Number of atoms
 Sc 0.0 0.0 0.0
 }
 
 basis={
 Including file /global/homes/a/aannabe/docs/accurate/ccECP_D2h/pps/Sc.pp
                                             !include,/global/homes/a/aannabe/docs/accurate/ccECP_D2h/basis/aug-cc-pVnZ/Sc_dz.basis
 Including file /global/homes/a/aannabe/docs/accurate/ccECP_D2h/basis/cc-pVnZ/Sc_dz.basis
 }
 
 {hf
 wf,11,1,1
 occ,3,1,1,0,1,0,0,0
 open,3.1
 sym,1,1,1,3,2
 }
 scf(i)=energy
 
 _CC_NORM_MAX=2.0
 {uccsd(t)
 maxit,100
 core
 }
 posthf(i)=energy
 
 table,scf,posthf,ekin,pot
 save,2.csv,new
 
 

 Variables initialized (889), CPU time= 0.01 sec
 Commands  initialized (702), CPU time= 0.01 sec, 572 directives.
 Default parameters read. Elapsed time= 0.24 sec

 Checking input...
 Passed
1


                                         ***  PROGRAM SYSTEM MOLPRO  ***
                                       Copyright, TTI GmbH Stuttgart, 2015
                                    Version 2015.1 linked Sep  7 2016 23:09:38


 **********************************************************************************************************************************
 LABEL *   Sc                                                                            
  64 bit serial version                                                                  DATE: 13-Nov-18          TIME: 22:25:15  
 **********************************************************************************************************************************

 SHA1:             2873118e99aab1bc19f5b6fc1784693c06d15c95
 **********************************************************************************************************************************

 THRESHOLDS:

 ZERO    =  1.00D-12  ONEINT  =  1.00D-12  TWOINT  =  1.00D-12  PREFAC  =  1.00D-14  LOCALI  =  1.00D-09  EORDER  =  1.00D-04
 ENERGY  =  0.00D+00  ETEST   =  0.00D+00  EDENS   =  0.00D+00  THRDEDEF=  1.00D-06  GRADIENT=  1.00D-02  STEP    =  1.00D-03
 ORBITAL =  1.00D-05  CIVEC   =  1.00D-05  COEFF   =  1.00D-04  PRINTCI =  5.00D-02  PUNCHCI =  9.90D+01  OPTGRAD =  3.00D-04
 OPTENERG=  1.00D-06  OPTSTEP =  3.00D-04  THRGRAD =  1.00D-10  COMPRESS=  1.00D-11  VARMIN  =  1.00D-07  VARMAX  =  1.00D-03
 THRDOUB =  0.00D+00  THRDIV  =  1.00D-05  THRRED  =  1.00D-07  THRPSP  =  1.00D+00  THRDC   =  1.00D-10  THRCS   =  1.00D-10
 THRNRM  =  1.00D-08  THREQ   =  0.00D+00  THRDE   =  1.00D+00  THRREF  =  1.00D-05  SPARFAC =  1.00D+00  THRDLP  =  1.00D-07
 THRDIA  =  1.00D-10  THRDLS  =  1.00D-07  THRGPS  =  0.00D+00  THRKEX  =  0.00D+00  THRDIS  =  2.00D-01  THRVAR  =  1.00D-10
 THRLOC  =  1.00D-06  THRGAP  =  1.00D-06  THRLOCT = -1.00D+00  THRGAPT = -1.00D+00  THRORB  =  1.00D-06  THRMLTP =  0.00D+00
 THRCPQCI=  1.00D-10  KEXTA   =  0.00D+00  THRCOARS=  0.00D+00  SYMTOL  =  1.00D-06  GRADTOL =  1.00D-06  THROVL  =  1.00D-08
 THRORTH =  1.00D-08  GRID    =  1.00D-06  GRIDMAX =  1.00D-03  DTMAX   =  0.00D+00  THROCCDE=  1.00D-01  THROCCDE=  1.00D-01



 ZUNIT=ANG
 

Geometry recognized as XYZ


 Variable memory set to  512000000 words,  buffer space   230000 words

 SETTING BASIS          =    USERDEF


 Recomputing integrals since basis changed


 Using spherical harmonics



 PROGRAM * SEWARD (Integral evaluation for generally contracted gaussian basis sets)     Author: Roland Lindh, 1990

 Geometry written to block  1 of record 700

 Orientation using atomic masses  
 Molecule type: Atom
 Symmetry elements: X,Y,Z
 Rotational constants:       0.0000000      0.0000000      0.0000000 GHz  (calculated with average atomic masses)

 Point group  D2h 



 ATOMIC COORDINATES

 NR  ATOM    CHARGE       X              Y              Z

   1  SC     11.00    0.000000000    0.000000000    0.000000000


          SC  CORE POTENTIAL

          d POTENTIAL

 POWERS             1              3              2              2
 EXPONENTIALS   16.02394       14.08647       11.93985       3.694401    
 COEFFICIENTS   11.00000       176.2634      -83.68150      0.4328276    

          s - d POTENTIAL

 POWERS             2              2
 EXPONENTIALS   11.49467       5.010314    
 COEFFICIENTS   153.9653       14.93676    

          p - d POTENTIAL

 POWERS             2              2
 EXPONENTIALS   11.45127       4.767984    
 COEFFICIENTS   97.21726       10.81704    


 BASIS DATA

   Nr Sym  Nuc  Type         Exponents   Contraction coefficients

    1.1 Ag    1  1s          66.882574     0.000553   -0.000139   -0.000679    0.000000
    2.1 Ag                   33.776681    -0.005115    0.001345    0.005456    0.000000
    3.1 Ag                   18.185884     0.004161   -0.001445   -0.016684    0.000000
    4.1 Ag                   11.748619     0.121603   -0.032082   -0.031739    0.000000
                              6.895190    -0.270137    0.075506    0.109560    0.000000
                              3.222124    -0.324410    0.089927    0.233293    0.000000
                              1.772120     0.291162   -0.090086   -0.310207    0.000000
                              0.841163     0.628931   -0.216444   -0.245083    0.000000
                              0.471976     0.273406   -0.179250   -1.175248    0.000000
                              0.313224     0.135352   -0.128160    1.032359    0.000000
                              0.101013     0.008041    0.337935    1.599039    0.000000
                              0.049071    -0.002610    0.609181   -0.623990    0.000000
                              0.022782     0.000597    0.244181   -0.847498    1.000000
    5.1 Ag    1  1s           0.531583     1.000000
    6.1 Ag    1  1s           2.006315     1.000000
    7.1 Ag    1  3d0         60.996829     0.000056
                             22.097637     0.005054
                             10.186744     0.032223
                              4.633892     0.082479
                              2.146927     0.159363
                              1.014536     0.228604
                              0.487206     0.243691
                              0.248191     0.231651
                              0.131273     0.195431
                              0.063714     0.214589
                              0.021542     0.074113
    8.1 Ag    1  3d2+        60.996829     0.000056
                             22.097637     0.005054
                             10.186744     0.032223
                              4.633892     0.082479
                              2.146927     0.159363
                              1.014536     0.228604
                              0.487206     0.243691
                              0.248191     0.231651
                              0.131273     0.195431
                              0.063714     0.214589
                              0.021542     0.074113
    9.1 Ag    1  3d0         60.996829    -0.000072
                             22.097637    -0.006079
                             10.186744    -0.039054
                              4.633892    -0.100652
                              2.146927    -0.194330
                              1.014536    -0.253556
                              0.487206    -0.213556
                              0.248191     0.054182
                              0.131273     0.261188
                              0.063714     0.520215
                              0.021542     0.166907
   10.1 Ag    1  3d2+        60.996829    -0.000072
                             22.097637    -0.006079
                             10.186744    -0.039054
                              4.633892    -0.100652
                              2.146927    -0.194330
                              1.014536    -0.253556
                              0.487206    -0.213556
                              0.248191     0.054182
                              0.131273     0.261188
                              0.063714     0.520215
                              0.021542     0.166907
   11.1 Ag    1  3d0         60.996829     0.000000
                             22.097637     0.000000
                             10.186744     0.000000
                              4.633892     0.000000
                              2.146927     0.000000
                              1.014536     0.000000
                              0.487206     0.000000
                              0.248191     0.000000
                              0.131273     0.000000
                              0.063714     0.000000
                              0.021542     1.000000
   12.1 Ag    1  3d2+        60.996829     0.000000
                             22.097637     0.000000
                             10.186744     0.000000
                              4.633892     0.000000
                              2.146927     0.000000
                              1.014536     0.000000
                              0.487206     0.000000
                              0.248191     0.000000
                              0.131273     0.000000
                              0.063714     0.000000
                              0.021542     1.000000
   13.1 Ag    1  3d0          1.412796     1.000000
   14.1 Ag    1  3d2+         1.412796     1.000000
   15.1 Ag    1  3d0          4.010741     1.000000
   16.1 Ag    1  3d2+         4.010741     1.000000
    1.2 B3u   1  2px         77.690832     0.000088    0.000017   -0.000063    0.000000
    2.2 B3u                  39.751864    -0.000754   -0.000026    0.000549    0.000000
    3.2 B3u                  20.615633     0.006584   -0.000861   -0.005120    0.000000
    4.2 B3u                  11.537150    -0.007189   -0.000483    0.007011    0.000000
                              7.597186    -0.068903    0.021364    0.053661    0.000000
                              3.765117    -0.013842   -0.003706    0.003574    0.000000
                              2.051006     0.248704   -0.058718   -0.235861    0.000000
                              1.048648     0.434328   -0.143364   -0.494801    0.000000
                              0.550231     0.326906   -0.077280   -0.229575    0.000000
                              0.303840     0.104617   -0.107764    0.917973    0.000000
                              0.165809     0.018512    0.322859    0.621155    0.000000
                              0.060419     0.001395    0.621726   -0.824648    0.000000
                              0.024751     0.000093    0.253787   -0.157592    1.000000
    5.2 B3u   1  2px          0.608728     1.000000
    6.2 B3u   1  2px          2.759507     1.000000
    7.2 B3u   1  4f1+         0.280673     1.000000
    8.2 B3u   1  4f3+         0.280673     1.000000
    9.2 B3u   1  4f1+         1.670187     1.000000
   10.2 B3u   1  4f3+         1.670187     1.000000
    1.3 B2u   1  2py         77.690832     0.000088    0.000017   -0.000063    0.000000
    2.3 B2u                  39.751864    -0.000754   -0.000026    0.000549    0.000000
    3.3 B2u                  20.615633     0.006584   -0.000861   -0.005120    0.000000
    4.3 B2u                  11.537150    -0.007189   -0.000483    0.007011    0.000000
                              7.597186    -0.068903    0.021364    0.053661    0.000000
                              3.765117    -0.013842   -0.003706    0.003574    0.000000
                              2.051006     0.248704   -0.058718   -0.235861    0.000000
                              1.048648     0.434328   -0.143364   -0.494801    0.000000
                              0.550231     0.326906   -0.077280   -0.229575    0.000000
                              0.303840     0.104617   -0.107764    0.917973    0.000000
                              0.165809     0.018512    0.322859    0.621155    0.000000
                              0.060419     0.001395    0.621726   -0.824648    0.000000
                              0.024751     0.000093    0.253787   -0.157592    1.000000
    5.3 B2u   1  2py          0.608728     1.000000
    6.3 B2u   1  2py          2.759507     1.000000
    7.3 B2u   1  4f1-         0.280673     1.000000
    8.3 B2u   1  4f3-         0.280673     1.000000
    9.3 B2u   1  4f1-         1.670187     1.000000
   10.3 B2u   1  4f3-         1.670187     1.000000
    1.4 B1g   1  3d2-        60.996829     0.000056   -0.000072    0.000000
    2.4 B1g                  22.097637     0.005054   -0.006079    0.000000
    3.4 B1g                  10.186744     0.032223   -0.039054    0.000000
                              4.633892     0.082479   -0.100652    0.000000
                              2.146927     0.159363   -0.194330    0.000000
                              1.014536     0.228604   -0.253556    0.000000
                              0.487206     0.243691   -0.213556    0.000000
                              0.248191     0.231651    0.054182    0.000000
                              0.131273     0.195431    0.261188    0.000000
                              0.063714     0.214589    0.520215    0.000000
                              0.021542     0.074113    0.166907    1.000000
    4.4 B1g   1  3d2-         1.412796     1.000000
    5.4 B1g   1  3d2-         4.010741     1.000000
    1.5 B1u   1  2pz         77.690832     0.000088    0.000017   -0.000063    0.000000
    2.5 B1u                  39.751864    -0.000754   -0.000026    0.000549    0.000000
    3.5 B1u                  20.615633     0.006584   -0.000861   -0.005120    0.000000
    4.5 B1u                  11.537150    -0.007189   -0.000483    0.007011    0.000000
                              7.597186    -0.068903    0.021364    0.053661    0.000000
                              3.765117    -0.013842   -0.003706    0.003574    0.000000
                              2.051006     0.248704   -0.058718   -0.235861    0.000000
                              1.048648     0.434328   -0.143364   -0.494801    0.000000
                              0.550231     0.326906   -0.077280   -0.229575    0.000000
                              0.303840     0.104617   -0.107764    0.917973    0.000000
                              0.165809     0.018512    0.322859    0.621155    0.000000
                              0.060419     0.001395    0.621726   -0.824648    0.000000
                              0.024751     0.000093    0.253787   -0.157592    1.000000
    5.5 B1u   1  2pz          0.608728     1.000000
    6.5 B1u   1  2pz          2.759507     1.000000
    7.5 B1u   1  4f0          0.280673     1.000000
    8.5 B1u   1  4f2+         0.280673     1.000000
    9.5 B1u   1  4f0          1.670187     1.000000
   10.5 B1u   1  4f2+         1.670187     1.000000
    1.6 B2g   1  3d1+        60.996829     0.000056   -0.000072    0.000000
    2.6 B2g                  22.097637     0.005054   -0.006079    0.000000
    3.6 B2g                  10.186744     0.032223   -0.039054    0.000000
                              4.633892     0.082479   -0.100652    0.000000
                              2.146927     0.159363   -0.194330    0.000000
                              1.014536     0.228604   -0.253556    0.000000
                              0.487206     0.243691   -0.213556    0.000000
                              0.248191     0.231651    0.054182    0.000000
                              0.131273     0.195431    0.261188    0.000000
                              0.063714     0.214589    0.520215    0.000000
                              0.021542     0.074113    0.166907    1.000000
    4.6 B2g   1  3d1+         1.412796     1.000000
    5.6 B2g   1  3d1+         4.010741     1.000000
    1.7 B3g   1  3d1-        60.996829     0.000056   -0.000072    0.000000
    2.7 B3g                  22.097637     0.005054   -0.006079    0.000000
    3.7 B3g                  10.186744     0.032223   -0.039054    0.000000
                              4.633892     0.082479   -0.100652    0.000000
                              2.146927     0.159363   -0.194330    0.000000
                              1.014536     0.228604   -0.253556    0.000000
                              0.487206     0.243691   -0.213556    0.000000
                              0.248191     0.231651    0.054182    0.000000
                              0.131273     0.195431    0.261188    0.000000
                              0.063714     0.214589    0.520215    0.000000
                              0.021542     0.074113    0.166907    1.000000
    4.7 B3g   1  3d1-         1.412796     1.000000
    5.7 B3g   1  3d1-         4.010741     1.000000
    1.8 Au    1  4f2-         0.280673     1.000000
    2.8 Au    1  4f2-         1.670187     1.000000

 NUCLEAR CHARGE:                   11
 NUMBER OF PRIMITIVE AOS:         158
 NUMBER OF SYMMETRY AOS:          139
 NUMBER OF CONTRACTIONS:           63   (  16Ag  +  10B3u +  10B2u +   5B1g +  10B1u +   5B2g +   5B3g +   2Au  )
 NUMBER OF CORE ORBITALS:           4   (   1Ag  +   1B3u +   1B2u +   0B1g +   1B1u +   0B2g +   0B3g +   0Au  )
 NUMBER OF VALENCE ORBITALS:        6   (   3Ag  +   0B3u +   0B2u +   1B1g +   0B1u +   1B2g +   1B3g +   0Au  )


 NUCLEAR REPULSION ENERGY    0.00000000

 EXTRA SYMMETRY OF AOS IN SYMMETRY 1:   1 1 1 1 1 1 2 3 2 3   2 3 2 3 2 3
 EXTRA SYMMETRY OF AOS IN SYMMETRY 2:   1 1 1 1 1 1 2 3 2 3
 EXTRA SYMMETRY OF AOS IN SYMMETRY 3:   1 1 1 1 1 1 2 3 2 3
 EXTRA SYMMETRY OF AOS IN SYMMETRY 5:   1 1 1 1 1 1 2 3 2 3

 Eigenvalues of metric

         1 0.750E-02 0.188E-01 0.746E-01 0.746E-01 0.326E+00 0.363E+00 0.363E+00 0.520E+00
         2 0.790E-02 0.103E+00 0.283E+00 0.797E+00 0.797E+00 0.113E+01 0.120E+01 0.120E+01
         3 0.790E-02 0.103E+00 0.283E+00 0.797E+00 0.797E+00 0.113E+01 0.120E+01 0.120E+01
         4 0.746E-01 0.363E+00 0.520E+00 0.165E+01 0.239E+01
         5 0.790E-02 0.103E+00 0.283E+00 0.797E+00 0.797E+00 0.113E+01 0.120E+01 0.120E+01
         6 0.746E-01 0.363E+00 0.520E+00 0.165E+01 0.239E+01
         7 0.746E-01 0.363E+00 0.520E+00 0.165E+01 0.239E+01
         8 0.797E+00 0.120E+01


 Contracted 2-electron integrals neglected if value below      1.0D-12
 AO integral compression algorithm  1   Integral accuracy      1.0D-12

     3.146 MB (compressed) written to integral file ( 69.5%)


 NUMBER OF SORTED TWO-ELECTRON INTEGRALS:     280021.     BUFFER LENGTH:  32768
 NUMBER OF SEGMENTS:   1  SEGMENT LENGTH:     280021      RECORD LENGTH: 524288

 Memory used in sort:       0.84 MW

 SORT1 READ      606445. AND WROTE      231448. INTEGRALS IN      1 RECORDS. CPU TIME:     0.02 SEC, REAL TIME:     0.02 SEC
 SORT2 READ      231448. AND WROTE      280021. INTEGRALS IN     12 RECORDS. CPU TIME:     0.03 SEC, REAL TIME:     0.07 SEC

 FILE SIZES:   FILE 1:    22.3 MBYTE,  FILE 4:     4.2 MBYTE,   TOTAL:     26.6 MBYTE

 OPERATOR DM      FOR CENTER  0  COORDINATES:    0.000000    0.000000    0.000000
 OPERATOR EKIN    FOR CENTER  0  COORDINATES:    0.000000    0.000000    0.000000
 OPERATOR POT     FOR CENTER  0  COORDINATES:    0.000000    0.000000    0.000000


 **********************************************************************************************************************************
 DATASETS  * FILE   NREC   LENGTH (MB)   RECORD NAMES
              1      20       20.64       500      610      700      900      950      970     1000      129      960     1100   
                                          VAR    BASINP    GEOM    SYMINP    ZMAT    AOBASIS   BASIS     P2S    ABASIS      S 
                                         1400     1410     1420     1200     1210     1080     1600     1650     1300     1700   
                                         EKIN       V       ECP      H0       H01     AOSYM     SMH    MOLCAS    ERIS     OPER   

 PROGRAMS   *        TOTAL       INT
 CPU TIMES  *         1.30      1.14
 REAL TIME  *         2.90 SEC
 DISK USED  *        26.85 MB      
 **********************************************************************************************************************************


 PROGRAM * RHF-SCF (OPEN SHELL)       Authors: W. Meyer, H.-J. Werner


 NUMBER OF ELECTRONS:       6+    5-    SPACE SYMMETRY=1    SPIN SYMMETRY: Doublet 
 CONVERGENCE THRESHOLDS:    1.00E-05 (Density)    1.00E-07 (Energy)
 MAX. NUMBER OF ITERATIONS:       60
 INTERPOLATION TYPE:            DIIS
 INTERPOLATION STEPS:              2 (START)      1 (STEP)
 LEVEL SHIFTS:                 -0.60 (CLOSED) -0.30 (OPEN) 


 Singly occupied orbitals:      3.1
 
 Extra symmetries of mos in symmetry 1:   1   1   3   2

   Atom=SC basis=ECP10MDF_GUESS    lmin=0  lmax=2

 Orbital guess generated from atomic densities. Full valence occupancy:    4   1   1   1   1   1   1   0


 Molecular orbital dump at record        2100.2

 ITERATION    DDIFF          GRAD             ENERGY        2-EL.EN.            DIPOLE MOMENTS         DIIS   ORB.
    1      0.000D+00      0.000D+00       -45.87810921     53.761434    0.00000    0.00000    0.00000    0    start
    2      0.000D+00      0.248D-01       -45.99406302     57.633074    0.00000    0.00000    0.00000    1    diag,B
    3      0.349D-01      0.972D-02       -46.04233987     59.290943    0.00000    0.00000    0.00000    2    diag,B
    4      0.173D-01      0.855D-02       -46.08770842     60.686973    0.00000    0.00000    0.00000    3    diag,B
    5      0.204D-01      0.641D-02       -46.11974699     61.404031    0.00000    0.00000    0.00000    4    diag,B
    6      0.296D-01      0.164D-02       -46.12100953     61.512127    0.00000    0.00000    0.00000    5    diag,B
    7      0.546D-02      0.178D-02       -46.12164010     61.462197    0.00000    0.00000    0.00000    6    fixocc
    8      0.380D-02      0.674D-03       -46.12171400     61.424048    0.00000    0.00000    0.00000    7    diag,B
    9      0.730D-02      0.538D-03       -46.12178248     61.369154    0.00000    0.00000    0.00000    8    diag,B
   10      0.414D-02      0.118D-03       -46.12178613     61.364087    0.00000    0.00000    0.00000    9    orth
   11      0.136D-02      0.455D-04       -46.12178735     61.358907    0.00000    0.00000    0.00000    9    diag,B
   12      0.679D-03      0.391D-04       -46.12178788     61.361444    0.00000    0.00000    0.00000    9    diag,B
   13      0.929D-04      0.186D-04       -46.12178821     61.362656    0.00000    0.00000    0.00000    9    diag,B
   14      0.148D-03      0.643D-05       -46.12178822     61.362377    0.00000    0.00000    0.00000    9    diag,B
   15      0.408D-04      0.146D-05       -46.12178822     61.362240    0.00000    0.00000    0.00000    9    diag,B
   16      0.156D-04      0.536D-06       -46.12178822     61.362236    0.00000    0.00000    0.00000    9    diag,B
   17      0.425D-05      0.267D-06       -46.12178822     61.362238    0.00000    0.00000    0.00000    0    orth

 Final alpha occupancy:   3   1   1   0   1   0   0   0
 Final beta  occupancy:   2   1   1   0   1   0   0   0

 !RHF STATE 1.1 Energy                -46.121788222395
 Nuclear energy                         0.00000000
 One-electron energy                  -76.80290703
 Two-electron energy                   30.68111881
 Virial quotient                       -2.45183295
 !RHF STATE 1.1 Dipole moment           0.00000000     0.00000000     0.00000000
 Dipole moment /Debye                   0.00000000     0.00000000     0.00000000
 

 !RHF expec          <1.1|EKIN|1.1>    18.811146256483
 
 !RHF expec           <1.1|POT|1.1>    -9.375428959419

 ELECTRON ORBITALS
 =================


   Orb  Occ    Energy  Couls-En    Coefficients

                                   1 1s      1 1s      1 1s      1 1s      1 1s      1 1s      1 3d0     1 3d2+    1 3d0     1 3d2+ 
                                   1 3d0     1 3d2+    1 3d0     1 3d2+    1 3d0     1 3d2+ 

   1.1   2    -2.5947  -11.4628  0.999701  0.000022  0.000051  0.000032  0.000366 -0.000142  0.002601  0.000002 -0.002235 -0.000001
                                 0.000483  0.000000  0.003781  0.000001  0.000750  0.000000

   2.1   2    -0.2110   -3.2794  0.000190  1.000608 -0.000145 -0.001144 -0.000142  0.000093  0.028551  0.000006  0.012438  0.000001
                                -0.004441 -0.000001 -0.002221 -0.000000 -0.000492 -0.000000

   3.1   +    -0.3466   -6.1732 -0.000003 -0.000006 -0.000001 -0.000001 -0.000000  0.000000  0.000074  1.003873 -0.000020 -0.265938
                                -0.000003 -0.039496 -0.000001 -0.011561 -0.000001 -0.006817

                                   1 2px     1 2px     1 2px     1 2px     1 2px     1 2px     1 4f1+    1 4f3+    1 4f1+    1 4f3+ 


   1.2   2    -1.5784   -9.4267  0.984058  0.021093  0.022388  0.000601  0.017406 -0.001075  0.000339  0.005496  0.002034  0.004499

                                   1 2py     1 2py     1 2py     1 2py     1 2py     1 2py     1 4f1-    1 4f3-    1 4f1-    1 4f3- 


   1.3   2    -1.5784   -9.4267  0.984058  0.021093  0.022389  0.000601  0.017406 -0.001075  0.000338 -0.005496  0.002034 -0.004499

                                   1 2pz     1 2pz     1 2pz     1 2pz     1 2pz     1 2pz     1 4f0     1 4f2+    1 4f0     1 4f2+ 


   1.5   2    -1.5846   -9.4395  0.983745  0.017717  0.019405  0.000778  0.018284 -0.001821  0.002154  0.000001  0.003930  0.000001

 HOMO      3.1    -0.346648 =      -9.4328eV
 LUMO      2.5     0.021217 =       0.5773eV
 LUMO-HOMO         0.367865 =      10.0101eV


 **********************************************************************************************************************************
 DATASETS  * FILE   NREC   LENGTH (MB)   RECORD NAMES
              1      20       20.64       500      610      700      900      950      970     1000      129      960     1100   
                                          VAR    BASINP    GEOM    SYMINP    ZMAT    AOBASIS   BASIS     P2S    ABASIS      S 
                                         1400     1410     1420     1200     1210     1080     1600     1650     1300     1700   
                                         EKIN       V       ECP      H0       H01     AOSYM     SMH    MOLCAS    ERIS     OPER   

              2       4        2.77       700     1000      520     2100   
                                         GEOM     BASIS   MCVARS     RHF  

 PROGRAMS   *        TOTAL        HF       INT
 CPU TIMES  *         1.40      0.10      1.14
 REAL TIME  *         3.22 SEC
 DISK USED  *        26.85 MB      
 **********************************************************************************************************************************
 SETTING SCF(I)         =       -46.12178822  AU                              
 SETTING _CC_NORM_MAX   =         2.00000000                                  


 PROGRAM * CCSD (Unrestricted open-shell coupled cluster)     Authors: C. Hampel, H.-J. Werner, 1991, M. Deegan, P.J. Knowles, 1992


 Convergence thresholds:  THRVAR = 1.00D-08  THRDEN = 1.00D-06

 CCSD(T)     terms to be evaluated (factor= 1.000)


 Number of closed-shell orbitals:   5 (   2   1   1   0   1   0   0   0 )
 Number of active  orbitals:        1 (   1   0   0   0   0   0   0   0 )
 Number of external orbitals:      57 (  13   9   9   5   9   5   5   2 )

 Memory could be reduced to 0.68 Mwords without degradation in triples

 Number of N-1 electron functions:              11
 Number of N-2 electron functions:              55
 Number of singly external CSFs:               124
 Number of doubly external CSFs:             19244
 Total number of CSFs:                       19368

 Molecular orbitals read from record     2100.2  Type=RHF/CANONICAL (state 1.1)

 Integral transformation finished. Total CPU:   0.01 sec, npass=  1  Memory used:   0.13 MW

 Starting RMP2 calculation

 ITER.      SQ.NORM     CORR.ENERGY   TOTAL ENERGY   ENERGY CHANGE        DEN1      VAR(S)    VAR(P)  DIIS     TIME
   1      1.09419151    -0.32870287   -46.45049109    -0.32870287    -0.00141153  0.11D-04  0.13D-02  1  1     0.02
   2      1.09780931    -0.33024786   -46.45203608    -0.00154499    -0.00003277  0.63D-06  0.43D-04  2  2     0.02
   3      1.09858847    -0.33045415   -46.45224237    -0.00020630    -0.00000014  0.84D-08  0.17D-06  3  3     0.03
   4      1.09861299    -0.33045775   -46.45224597    -0.00000359    -0.00000000  0.24D-09  0.24D-08  4  4     0.03
   5      1.09861362    -0.33045773   -46.45224595     0.00000001    -0.00000000  0.46D-11  0.92D-11  5  5     0.03

 Norm of t1 vector:      0.02747789      S-energy:    -0.00199989      T1 diagnostic:  0.00005855
 Norm of t2 vector:      0.31282357      P-energy:    -0.32845785
                                         Alpha-Beta:  -0.24353491
                                         Alpha-Alpha: -0.04589447
                                         Beta-Beta:   -0.03902846

 Spin contamination <S**2-Sz**2-Sz>     0.00193147
  Reference energy                    -46.121788222395
  RHF-RMP2 correlation energy          -0.330457732600
 !RHF-RMP2 energy                     -46.452245954995

 Starting UCCSD calculation

 ITER.      SQ.NORM     CORR.ENERGY   TOTAL ENERGY   ENERGY CHANGE        DEN1      VAR(S)    VAR(P)  DIIS     TIME
   1      1.10645019    -0.34194336   -46.46373158    -0.34194336    -0.00806241  0.18D-02  0.37D-02  1  1     0.07
   2      1.12584867    -0.35069038   -46.47247860    -0.00874702    -0.00083816  0.36D-03  0.62D-03  2  2     0.10
   3      1.13780888    -0.35293087   -46.47471909    -0.00224049    -0.00014712  0.91D-04  0.97D-04  3  3     0.13
   4      1.14501110    -0.35394820   -46.47573643    -0.00101733    -0.00002028  0.11D-04  0.12D-04  4  4     0.16
   5      1.14769698    -0.35421212   -46.47600035    -0.00026392    -0.00000408  0.23D-05  0.24D-05  5  5     0.19
   6      1.14817622    -0.35423922   -46.47602744    -0.00002709    -0.00000152  0.11D-05  0.80D-06  6  6     0.22
   7      1.14840681    -0.35424984   -46.47603806    -0.00001063    -0.00000041  0.35D-06  0.17D-06  6  1     0.25
   8      1.14846562    -0.35424480   -46.47603302     0.00000504    -0.00000012  0.91D-07  0.59D-07  6  2     0.27
   9      1.14854153    -0.35424946   -46.47603768    -0.00000466    -0.00000003  0.24D-07  0.13D-07  6  3     0.31
  10      1.14857425    -0.35425044   -46.47603866    -0.00000098    -0.00000001  0.71D-08  0.51D-08  6  4     0.33
  11      1.14858670    -0.35425101   -46.47603923    -0.00000057    -0.00000000  0.29D-08  0.26D-08  6  5     0.37

 Norm of t1 vector:      0.10977116      S-energy:    -0.00200261      T1 diagnostic:  0.02135756
                                                                       D1 diagnostic:  0.06544512
 Norm of t2 vector:      0.36950913      P-energy:    -0.35224840
                                         Alpha-Beta:  -0.27080040
                                         Alpha-Alpha: -0.04457355
                                         Beta-Beta:   -0.03687445

 Singles amplitudes (print threshold =  0.500E-01):

         I         SYM. A    A   T(IA) [Alpha-Alpha]

         2         1         4      0.06747483
 
         I         SYM. A    A   T(IA) [Beta-Beta]

         2         1         4      0.05003327

 Doubles amplitudes (print threshold =  0.500E-01):

         I         J         SYM. A    SYM. B    A         B      T(IJ, AB) [Alpha-Beta]

         2         2         2         2         1         1     -0.08076378
         2         2         2         2         1         2     -0.05679538
         2         2         2         2         2         1     -0.05900495
         2         2         3         3         1         1     -0.08076157
         2         2         3         3         1         2     -0.05679378
         2         2         3         3         2         1     -0.05900351
         2         2         5         5         1         1     -0.09364305
         2         2         5         5         1         2     -0.06527022
         2         2         5         5         2         1     -0.06617587
         2         2         5         5         2         2     -0.05020055

 Spin contamination <S**2-Sz**2-Sz>     0.00670720

 Memory could be reduced to 0.72 Mwords without degradation in triples
 

  Correlated core orbitals:             1.1       1.2       1.3       1.5
  Orbital energies:                    -2.6239   -1.6301   -1.6301   -1.5916
 
  UCCSD core-core energy               -0.247337813515
  UCCSD core-valence energy            -0.071734969955
  UCCSD valence correlation energy     -0.035178223558
 

 RESULTS
 =======

  Reference energy                    -46.121788222395
  UCCSD singles energy                 -0.002002607731
  UCCSD pair energy                    -0.352248399297
  UCCSD correlation energy             -0.354251007028
  Triples (T) contribution             -0.011938811128
  Total correlation energy             -0.366189818157
 
  RHF-UCCSD energy                    -46.476039229423
  RHF-UCCSD[T] energy                 -46.488213059043
  RHF-UCCSD-T energy                  -46.487967596972
 !RHF-UCCSD(T) energy                 -46.487978040551

 Program statistics:

 Available memory in ccsd:               511999552
 Min. memory needed in ccsd:                 71279
 Max. memory used in ccsd:                   92575
 Max. memory used in cckext:                112711 (11 integral passes)
 Max. memory used in cckint:                132016 ( 1 integral passes)



 **********************************************************************************************************************************
 DATASETS  * FILE   NREC   LENGTH (MB)   RECORD NAMES
              1      20       20.64       500      610      700      900      950      970     1000      129      960     1100   
                                          VAR    BASINP    GEOM    SYMINP    ZMAT    AOBASIS   BASIS     P2S    ABASIS      S 
                                         1400     1410     1420     1200     1210     1080     1600     1650     1300     1700   
                                         EKIN       V       ECP      H0       H01     AOSYM     SMH    MOLCAS    ERIS     OPER   

              2       4        2.77       700     1000      520     2100   
                                         GEOM     BASIS   MCVARS     RHF  

 PROGRAMS   *        TOTAL  UCCSD(T)        HF       INT
 CPU TIMES  *         2.00      0.60      0.10      1.14
 REAL TIME  *         5.25 SEC
 DISK USED  *        31.32 MB      
 **********************************************************************************************************************************
 SETTING POSTHF(I)      =       -46.48797804  AU                              
                                                                                                                                                                                                                                                                

        SCF            POSTHF        EKIN          POT
    -46.12178822   -46.48797804   18.81114626   -9.37542896
                                                  

 UCCSD(T)/USERDEF energy=    -46.487978040551

        UCCSD(T)        HF-SCF  
    -46.48797804    -46.12178822
 **********************************************************************************************************************************
 Variable memory released
