
 Primary working directories    : /global/cscratch1/sd/aannabe
 Secondary working directories  : /global/cscratch1/sd/aannabe
 Wavefunction directory         : /global/homes/a/aannabe/wfu/
 Main file repository           : /global/cscratch1/sd/aannabe/

 SHA1      : 2873118e99aab1bc19f5b6fc1784693c06d15c95
 NAME      : 2015.1.8
 ARCHNAME  : linux/x86_64
 FC        : /opt/cray/pe/craype/2.5.5/bin/ftn
 BLASLIB   : -Wl,-_start-group /opt/intel/compilers_and_libraries_2016.3.210/linux/mkl/lib/intel64/libmkl_intel_ilp64.a /opt/intel/compilers_and_libraries_2016.3.210/linux/mkl/lib/intel64/libmkl_intel_thread.a /opt/intel/compilers_and_libraries_2016.3.210/linux/mkl/lib/intel64/libmkl_core.a -Wl,-_end-group
 id        : lbl

 Nodes     nprocs
 nid12943     1

 Using customized tuning parameters: mindgm=8; mindgv=16; mindgc=4; mindgr=1; noblas=0; minvec=7
 default implementation of scratch files=df  

 ***,Sc
 memory,512,m
 gthresh,twoint=1.e-12
 
 gprint,basis,orbitals
 gexpec,ekin,pot
 
 angstrom
 geometry={
 1                                                                               ! Number of atoms
 Sc 0.0 0.0 0.0
 }
 
 basis={
 Including file /global/homes/a/aannabe/docs/accurate/ccECP_D2h/pps/Sc.pp
 Including file /global/homes/a/aannabe/docs/accurate/ccECP_D2h/basis/aug-cc-pVnZ/Sc_qz.basis
 }
 
 {hf
 wf,11,1,1
 occ,3,1,1,0,1,0,0,0
 open,3.1
 sym,1,1,1,3,2
 }
 scf(i)=energy
 
 _CC_NORM_MAX=2.0
 {uccsd(t)
 maxit,100
 core
 }
 posthf(i)=energy
 
 table,scf,posthf,ekin,pot
 save,4.csv,new
 
 

 Variables initialized (889), CPU time= 0.01 sec
 Commands  initialized (702), CPU time= 0.01 sec, 572 directives.
 Default parameters read. Elapsed time= 0.13 sec

 Checking input...
 Passed
1


                                         ***  PROGRAM SYSTEM MOLPRO  ***
                                       Copyright, TTI GmbH Stuttgart, 2015
                                    Version 2015.1 linked Sep  7 2016 23:09:38


 **********************************************************************************************************************************
 LABEL *   Sc                                                                            
  64 bit serial version                                                                  DATE: 28-Oct-18          TIME: 13:32:57  
 **********************************************************************************************************************************

 SHA1:             2873118e99aab1bc19f5b6fc1784693c06d15c95
 **********************************************************************************************************************************

 THRESHOLDS:

 ZERO    =  1.00D-12  ONEINT  =  1.00D-12  TWOINT  =  1.00D-12  PREFAC  =  1.00D-14  LOCALI  =  1.00D-09  EORDER  =  1.00D-04
 ENERGY  =  0.00D+00  ETEST   =  0.00D+00  EDENS   =  0.00D+00  THRDEDEF=  1.00D-06  GRADIENT=  1.00D-02  STEP    =  1.00D-03
 ORBITAL =  1.00D-05  CIVEC   =  1.00D-05  COEFF   =  1.00D-04  PRINTCI =  5.00D-02  PUNCHCI =  9.90D+01  OPTGRAD =  3.00D-04
 OPTENERG=  1.00D-06  OPTSTEP =  3.00D-04  THRGRAD =  1.00D-10  COMPRESS=  1.00D-11  VARMIN  =  1.00D-07  VARMAX  =  1.00D-03
 THRDOUB =  0.00D+00  THRDIV  =  1.00D-05  THRRED  =  1.00D-07  THRPSP  =  1.00D+00  THRDC   =  1.00D-10  THRCS   =  1.00D-10
 THRNRM  =  1.00D-08  THREQ   =  0.00D+00  THRDE   =  1.00D+00  THRREF  =  1.00D-05  SPARFAC =  1.00D+00  THRDLP  =  1.00D-07
 THRDIA  =  1.00D-10  THRDLS  =  1.00D-07  THRGPS  =  0.00D+00  THRKEX  =  0.00D+00  THRDIS  =  2.00D-01  THRVAR  =  1.00D-10
 THRLOC  =  1.00D-06  THRGAP  =  1.00D-06  THRLOCT = -1.00D+00  THRGAPT = -1.00D+00  THRORB  =  1.00D-06  THRMLTP =  0.00D+00
 THRCPQCI=  1.00D-10  KEXTA   =  0.00D+00  THRCOARS=  0.00D+00  SYMTOL  =  1.00D-06  GRADTOL =  1.00D-06  THROVL  =  1.00D-08
 THRORTH =  1.00D-08  GRID    =  1.00D-06  GRIDMAX =  1.00D-03  DTMAX   =  0.00D+00  THROCCDE=  1.00D-01  THROCCDE=  1.00D-01



 ZUNIT=ANG
 

Geometry recognized as XYZ


 Variable memory set to  512000000 words,  buffer space   230000 words

 SETTING BASIS          =    USERDEF


 Recomputing integrals since basis changed


 Using spherical harmonics



 PROGRAM * SEWARD (Integral evaluation for generally contracted gaussian basis sets)     Author: Roland Lindh, 1990

 Geometry written to block  1 of record 700

 Orientation using atomic masses  
 Molecule type: Atom
 Symmetry elements: X,Y,Z
 Rotational constants:       0.0000000      0.0000000      0.0000000 GHz  (calculated with average atomic masses)

 Point group  D2h 



 ATOMIC COORDINATES

 NR  ATOM    CHARGE       X              Y              Z

   1  SC     11.00    0.000000000    0.000000000    0.000000000


          SC  CORE POTENTIAL

          d POTENTIAL

 POWERS             1              3              2              2
 EXPONENTIALS   16.02394       14.08647       11.93985       3.694401    
 COEFFICIENTS   11.00000       176.2634      -83.68150      0.4328276    

          s - d POTENTIAL

 POWERS             2              2
 EXPONENTIALS   11.49467       5.010314    
 COEFFICIENTS   153.9653       14.93676    

          p - d POTENTIAL

 POWERS             2              2
 EXPONENTIALS   11.45127       4.767984    
 COEFFICIENTS   97.21726       10.81704    


 BASIS DATA

   Nr Sym  Nuc  Type         Exponents   Contraction coefficients

    1.1 Ag    1  1s          66.882574     0.000553   -0.000139   -0.000679   -0.001452    0.000430    0.000000
    2.1 Ag                   33.776681    -0.005115    0.001345    0.005456    0.011362   -0.001137    0.000000
    3.1 Ag                   18.185884     0.004161   -0.001445   -0.016684   -0.039876    0.020812    0.000000
    4.1 Ag                   11.748619     0.121603   -0.032082   -0.031739   -0.025810   -0.189578    0.000000
    5.1 Ag                    6.895190    -0.270137    0.075506    0.109560    0.157943    0.438676    0.000000
    6.1 Ag                    3.222124    -0.324410    0.089927    0.233293    0.452868    0.267618    0.000000
                              1.772120     0.291162   -0.090086   -0.310207   -0.766587   -0.732808    0.000000
                              0.841163     0.628931   -0.216444   -0.245083   -0.607800   -3.044240    0.000000
                              0.471976     0.273406   -0.179250   -1.175248   -1.716002    5.476067    0.000000
                              0.313224     0.135352   -0.128160    1.032359    3.614003   -1.017602    0.000000
                              0.101013     0.008041    0.337935    1.599039   -0.569480   -5.014439    0.000000
                              0.049071    -0.002610    0.609181   -0.623990   -2.255967    6.159792    0.000000
                              0.022782     0.000597    0.244181   -0.847498    1.910160   -2.690368    1.000000
    7.1 Ag    1  1s           0.011000     1.000000
    8.1 Ag    1  3d0         60.996829     0.000056
                             22.097637     0.005054
                             10.186744     0.032223
                              4.633892     0.082479
                              2.146927     0.159363
                              1.014536     0.228604
                              0.487206     0.243691
                              0.248191     0.231651
                              0.131273     0.195431
                              0.063714     0.214589
                              0.021542     0.074113
    9.1 Ag    1  3d2+        60.996829     0.000056
                             22.097637     0.005054
                             10.186744     0.032223
                              4.633892     0.082479
                              2.146927     0.159363
                              1.014536     0.228604
                              0.487206     0.243691
                              0.248191     0.231651
                              0.131273     0.195431
                              0.063714     0.214589
                              0.021542     0.074113
   10.1 Ag    1  3d0         60.996829    -0.000072
                             22.097637    -0.006079
                             10.186744    -0.039054
                              4.633892    -0.100652
                              2.146927    -0.194330
                              1.014536    -0.253556
                              0.487206    -0.213556
                              0.248191     0.054182
                              0.131273     0.261188
                              0.063714     0.520215
                              0.021542     0.166907
   11.1 Ag    1  3d2+        60.996829    -0.000072
                             22.097637    -0.006079
                             10.186744    -0.039054
                              4.633892    -0.100652
                              2.146927    -0.194330
                              1.014536    -0.253556
                              0.487206    -0.213556
                              0.248191     0.054182
                              0.131273     0.261188
                              0.063714     0.520215
                              0.021542     0.166907
   12.1 Ag    1  3d0         60.996829     0.000054
                             22.097637     0.008195
                             10.186744     0.050073
                              4.633892     0.136174
                              2.146927     0.246516
                              1.014536     0.258158
                              0.487206    -0.124799
                              0.248191    -0.439081
                              0.131273    -0.475347
                              0.063714     0.527187
                              0.021542     0.473373
   13.1 Ag    1  3d2+        60.996829     0.000054
                             22.097637     0.008195
                             10.186744     0.050073
                              4.633892     0.136174
                              2.146927     0.246516
                              1.014536     0.258158
                              0.487206    -0.124799
                              0.248191    -0.439081
                              0.131273    -0.475347
                              0.063714     0.527187
                              0.021542     0.473373
   14.1 Ag    1  3d0         60.996829    -0.000132
                             22.097637    -0.010195
                             10.186744    -0.066815
                              4.633892    -0.179255
                              2.146927    -0.338733
                              1.014536    -0.145784
                              0.487206     0.700444
                              0.248191     0.511976
                              0.131273    -1.019123
                              0.063714    -0.092221
                              0.021542     0.696675
   15.1 Ag    1  3d2+        60.996829    -0.000132
                             22.097637    -0.010195
                             10.186744    -0.066815
                              4.633892    -0.179255
                              2.146927    -0.338733
                              1.014536    -0.145784
                              0.487206     0.700444
                              0.248191     0.511976
                              0.131273    -1.019123
                              0.063714    -0.092221
                              0.021542     0.696675
   16.1 Ag    1  3d0         60.996829     0.000000
                             22.097637     0.000000
                             10.186744     0.000000
                              4.633892     0.000000
                              2.146927     0.000000
                              1.014536     0.000000
                              0.487206     0.000000
                              0.248191     0.000000
                              0.131273     0.000000
                              0.063714     0.000000
                              0.021542     1.000000
   17.1 Ag    1  3d2+        60.996829     0.000000
                             22.097637     0.000000
                             10.186744     0.000000
                              4.633892     0.000000
                              2.146927     0.000000
                              1.014536     0.000000
                              0.487206     0.000000
                              0.248191     0.000000
                              0.131273     0.000000
                              0.063714     0.000000
                              0.021542     1.000000
   18.1 Ag    1  3d0          0.010000     1.000000
   19.1 Ag    1  3d2+         0.010000     1.000000
   20.1 Ag    1  5g0          0.155030     1.000000
   21.1 Ag    1  5g4+         0.155030     1.000000
   22.1 Ag    1  5g2+         0.155030     1.000000
   23.1 Ag    1  5g0          0.318017     1.000000
   24.1 Ag    1  5g4+         0.318017     1.000000
   25.1 Ag    1  5g2+         0.318017     1.000000
   26.1 Ag    1  5g0          0.652356     1.000000
   27.1 Ag    1  5g4+         0.652356     1.000000
   28.1 Ag    1  5g2+         0.652356     1.000000
    1.2 B3u   1  2px         77.690832     0.000088    0.000017   -0.000063   -0.000243   -0.000256    0.000000
    2.2 B3u                  39.751864    -0.000754   -0.000026    0.000549    0.001568    0.001084    0.000000
    3.2 B3u                  20.615633     0.006584   -0.000861   -0.005120   -0.009554    0.000400    0.000000
    4.2 B3u                  11.537150    -0.007189   -0.000483    0.007011    0.018020    0.021956    0.000000
    5.2 B3u                   7.597186    -0.068903    0.021364    0.053661    0.051008   -0.162694    0.000000
    6.2 B3u                   3.765117    -0.013842   -0.003706    0.003574    0.043280    0.000371    0.000000
                              2.051006     0.248704   -0.058718   -0.235861   -0.404178    1.053654    0.000000
                              1.048648     0.434328   -0.143364   -0.494801   -0.824904    0.658651    0.000000
                              0.550231     0.326906   -0.077280   -0.229575    0.710014   -4.722268    0.000000
                              0.303840     0.104617   -0.107764    0.917973    2.225255    5.407993    0.000000
                              0.165809     0.018512    0.322859    0.621155   -2.742903   -2.002166    0.000000
                              0.060419     0.001395    0.621726   -0.824648    0.581423   -0.714822    0.000000
                              0.024751     0.000093    0.253787   -0.157592    0.480910    0.926801    1.000000
    7.2 B3u   1  2px          0.012000     1.000000
    8.2 B3u   1  4f1+         0.034940     1.000000
    9.2 B3u   1  4f3+         0.034940     1.000000
   10.2 B3u   1  4f1+         0.121673     1.000000
   11.2 B3u   1  4f3+         0.121673     1.000000
   12.2 B3u   1  4f1+         0.423707     1.000000
   13.2 B3u   1  4f3+         0.423707     1.000000
   14.2 B3u   1  4f1+         1.475494     1.000000
   15.2 B3u   1  4f3+         1.475494     1.000000
   16.2 B3u   1  6h1+         0.472110     1.000000
   17.2 B3u   1  6h3+         0.472110     1.000000
   18.2 B3u   1  6h5+         0.472110     1.000000
   19.2 B3u   1  6h1+         3.057835     1.000000
   20.2 B3u   1  6h3+         3.057835     1.000000
   21.2 B3u   1  6h5+         3.057835     1.000000
    1.3 B2u   1  2py         77.690832     0.000088    0.000017   -0.000063   -0.000243   -0.000256    0.000000
    2.3 B2u                  39.751864    -0.000754   -0.000026    0.000549    0.001568    0.001084    0.000000
    3.3 B2u                  20.615633     0.006584   -0.000861   -0.005120   -0.009554    0.000400    0.000000
    4.3 B2u                  11.537150    -0.007189   -0.000483    0.007011    0.018020    0.021956    0.000000
    5.3 B2u                   7.597186    -0.068903    0.021364    0.053661    0.051008   -0.162694    0.000000
    6.3 B2u                   3.765117    -0.013842   -0.003706    0.003574    0.043280    0.000371    0.000000
                              2.051006     0.248704   -0.058718   -0.235861   -0.404178    1.053654    0.000000
                              1.048648     0.434328   -0.143364   -0.494801   -0.824904    0.658651    0.000000
                              0.550231     0.326906   -0.077280   -0.229575    0.710014   -4.722268    0.000000
                              0.303840     0.104617   -0.107764    0.917973    2.225255    5.407993    0.000000
                              0.165809     0.018512    0.322859    0.621155   -2.742903   -2.002166    0.000000
                              0.060419     0.001395    0.621726   -0.824648    0.581423   -0.714822    0.000000
                              0.024751     0.000093    0.253787   -0.157592    0.480910    0.926801    1.000000
    7.3 B2u   1  2py          0.012000     1.000000
    8.3 B2u   1  4f1-         0.034940     1.000000
    9.3 B2u   1  4f3-         0.034940     1.000000
   10.3 B2u   1  4f1-         0.121673     1.000000
   11.3 B2u   1  4f3-         0.121673     1.000000
   12.3 B2u   1  4f1-         0.423707     1.000000
   13.3 B2u   1  4f3-         0.423707     1.000000
   14.3 B2u   1  4f1-         1.475494     1.000000
   15.3 B2u   1  4f3-         1.475494     1.000000
   16.3 B2u   1  6h1-         0.472110     1.000000
   17.3 B2u   1  6h3-         0.472110     1.000000
   18.3 B2u   1  6h5-         0.472110     1.000000
   19.3 B2u   1  6h1-         3.057835     1.000000
   20.3 B2u   1  6h3-         3.057835     1.000000
   21.3 B2u   1  6h5-         3.057835     1.000000
    1.4 B1g   1  3d2-        60.996829     0.000056   -0.000072    0.000054   -0.000132    0.000000
    2.4 B1g                  22.097637     0.005054   -0.006079    0.008195   -0.010195    0.000000
    3.4 B1g                  10.186744     0.032223   -0.039054    0.050073   -0.066815    0.000000
    4.4 B1g                   4.633892     0.082479   -0.100652    0.136174   -0.179255    0.000000
    5.4 B1g                   2.146927     0.159363   -0.194330    0.246516   -0.338733    0.000000
                              1.014536     0.228604   -0.253556    0.258158   -0.145784    0.000000
                              0.487206     0.243691   -0.213556   -0.124799    0.700444    0.000000
                              0.248191     0.231651    0.054182   -0.439081    0.511976    0.000000
                              0.131273     0.195431    0.261188   -0.475347   -1.019123    0.000000
                              0.063714     0.214589    0.520215    0.527187   -0.092221    0.000000
                              0.021542     0.074113    0.166907    0.473373    0.696675    1.000000
    6.4 B1g   1  3d2-         0.010000     1.000000
    7.4 B1g   1  5g2-         0.155030     1.000000
    8.4 B1g   1  5g4-         0.155030     1.000000
    9.4 B1g   1  5g2-         0.318017     1.000000
   10.4 B1g   1  5g4-         0.318017     1.000000
   11.4 B1g   1  5g2-         0.652356     1.000000
   12.4 B1g   1  5g4-         0.652356     1.000000
    1.5 B1u   1  2pz         77.690832     0.000088    0.000017   -0.000063   -0.000243   -0.000256    0.000000
    2.5 B1u                  39.751864    -0.000754   -0.000026    0.000549    0.001568    0.001084    0.000000
    3.5 B1u                  20.615633     0.006584   -0.000861   -0.005120   -0.009554    0.000400    0.000000
    4.5 B1u                  11.537150    -0.007189   -0.000483    0.007011    0.018020    0.021956    0.000000
    5.5 B1u                   7.597186    -0.068903    0.021364    0.053661    0.051008   -0.162694    0.000000
    6.5 B1u                   3.765117    -0.013842   -0.003706    0.003574    0.043280    0.000371    0.000000
                              2.051006     0.248704   -0.058718   -0.235861   -0.404178    1.053654    0.000000
                              1.048648     0.434328   -0.143364   -0.494801   -0.824904    0.658651    0.000000
                              0.550231     0.326906   -0.077280   -0.229575    0.710014   -4.722268    0.000000
                              0.303840     0.104617   -0.107764    0.917973    2.225255    5.407993    0.000000
                              0.165809     0.018512    0.322859    0.621155   -2.742903   -2.002166    0.000000
                              0.060419     0.001395    0.621726   -0.824648    0.581423   -0.714822    0.000000
                              0.024751     0.000093    0.253787   -0.157592    0.480910    0.926801    1.000000
    7.5 B1u   1  2pz          0.012000     1.000000
    8.5 B1u   1  4f0          0.034940     1.000000
    9.5 B1u   1  4f2+         0.034940     1.000000
   10.5 B1u   1  4f0          0.121673     1.000000
   11.5 B1u   1  4f2+         0.121673     1.000000
   12.5 B1u   1  4f0          0.423707     1.000000
   13.5 B1u   1  4f2+         0.423707     1.000000
   14.5 B1u   1  4f0          1.475494     1.000000
   15.5 B1u   1  4f2+         1.475494     1.000000
   16.5 B1u   1  6h2+         0.472110     1.000000
   17.5 B1u   1  6h4+         0.472110     1.000000
   18.5 B1u   1  6h0          0.472110     1.000000
   19.5 B1u   1  6h2+         3.057835     1.000000
   20.5 B1u   1  6h4+         3.057835     1.000000
   21.5 B1u   1  6h0          3.057835     1.000000
    1.6 B2g   1  3d1+        60.996829     0.000056   -0.000072    0.000054   -0.000132    0.000000
    2.6 B2g                  22.097637     0.005054   -0.006079    0.008195   -0.010195    0.000000
    3.6 B2g                  10.186744     0.032223   -0.039054    0.050073   -0.066815    0.000000
    4.6 B2g                   4.633892     0.082479   -0.100652    0.136174   -0.179255    0.000000
    5.6 B2g                   2.146927     0.159363   -0.194330    0.246516   -0.338733    0.000000
                              1.014536     0.228604   -0.253556    0.258158   -0.145784    0.000000
                              0.487206     0.243691   -0.213556   -0.124799    0.700444    0.000000
                              0.248191     0.231651    0.054182   -0.439081    0.511976    0.000000
                              0.131273     0.195431    0.261188   -0.475347   -1.019123    0.000000
                              0.063714     0.214589    0.520215    0.527187   -0.092221    0.000000
                              0.021542     0.074113    0.166907    0.473373    0.696675    1.000000
    6.6 B2g   1  3d1+         0.010000     1.000000
    7.6 B2g   1  5g1+         0.155030     1.000000
    8.6 B2g   1  5g3+         0.155030     1.000000
    9.6 B2g   1  5g1+         0.318017     1.000000
   10.6 B2g   1  5g3+         0.318017     1.000000
   11.6 B2g   1  5g1+         0.652356     1.000000
   12.6 B2g   1  5g3+         0.652356     1.000000
    1.7 B3g   1  3d1-        60.996829     0.000056   -0.000072    0.000054   -0.000132    0.000000
    2.7 B3g                  22.097637     0.005054   -0.006079    0.008195   -0.010195    0.000000
    3.7 B3g                  10.186744     0.032223   -0.039054    0.050073   -0.066815    0.000000
    4.7 B3g                   4.633892     0.082479   -0.100652    0.136174   -0.179255    0.000000
    5.7 B3g                   2.146927     0.159363   -0.194330    0.246516   -0.338733    0.000000
                              1.014536     0.228604   -0.253556    0.258158   -0.145784    0.000000
                              0.487206     0.243691   -0.213556   -0.124799    0.700444    0.000000
                              0.248191     0.231651    0.054182   -0.439081    0.511976    0.000000
                              0.131273     0.195431    0.261188   -0.475347   -1.019123    0.000000
                              0.063714     0.214589    0.520215    0.527187   -0.092221    0.000000
                              0.021542     0.074113    0.166907    0.473373    0.696675    1.000000
    6.7 B3g   1  3d1-         0.010000     1.000000
    7.7 B3g   1  5g1-         0.155030     1.000000
    8.7 B3g   1  5g3-         0.155030     1.000000
    9.7 B3g   1  5g1-         0.318017     1.000000
   10.7 B3g   1  5g3-         0.318017     1.000000
   11.7 B3g   1  5g1-         0.652356     1.000000
   12.7 B3g   1  5g3-         0.652356     1.000000
    1.8 Au    1  4f2-         0.034940     1.000000
    2.8 Au    1  4f2-         0.121673     1.000000
    3.8 Au    1  4f2-         0.423707     1.000000
    4.8 Au    1  4f2-         1.475494     1.000000
    5.8 Au    1  6h4-         0.472110     1.000000
    6.8 Au    1  6h2-         0.472110     1.000000
    7.8 Au    1  6h4-         3.057835     1.000000
    8.8 Au    1  6h2-         3.057835     1.000000

 NUCLEAR CHARGE:                   11
 NUMBER OF PRIMITIVE AOS:         255
 NUMBER OF SYMMETRY AOS:          193
 NUMBER OF CONTRACTIONS:          135   (  28Ag  +  21B3u +  21B2u +  12B1g +  21B1u +  12B2g +  12B3g +   8Au  )
 NUMBER OF CORE ORBITALS:           4   (   1Ag  +   1B3u +   1B2u +   0B1g +   1B1u +   0B2g +   0B3g +   0Au  )
 NUMBER OF VALENCE ORBITALS:        6   (   3Ag  +   0B3u +   0B2u +   1B1g +   0B1u +   1B2g +   1B3g +   0Au  )


 NUCLEAR REPULSION ENERGY    0.00000000

 EXTRA SYMMETRY OF AOS IN SYMMETRY 1:   1 1 1 1 1 1 1 2 3 2   3 2 3 2 3 2 3 2 3 4   5 6 4 5 6 4 5 6
 EXTRA SYMMETRY OF AOS IN SYMMETRY 2:   1 1 1 1 1 1 1 2 3 2   3 2 3 2 3 4 5 6 4 5   6
 EXTRA SYMMETRY OF AOS IN SYMMETRY 3:   1 1 1 1 1 1 1 2 3 2   3 2 3 2 3 4 5 6 4 5   6
 EXTRA SYMMETRY OF AOS IN SYMMETRY 4:   1 1 1 1 1 1 2 3 2 3   2 3
 EXTRA SYMMETRY OF AOS IN SYMMETRY 5:   1 1 1 1 1 1 1 2 3 2   3 2 3 2 3 4 5 6 4 5   6
 EXTRA SYMMETRY OF AOS IN SYMMETRY 6:   1 1 1 1 1 1 2 3 2 3   2 3
 EXTRA SYMMETRY OF AOS IN SYMMETRY 7:   1 1 1 1 1 1 2 3 2 3   2 3
 EXTRA SYMMETRY OF AOS IN SYMMETRY 8:   1 1 1 1 2 3 2 3

 Eigenvalues of metric

         1 0.187E-03 0.242E-01 0.242E-01 0.393E-01 0.127E+00 0.127E+00 0.127E+00 0.323E+00
         2 0.114E-01 0.215E+00 0.340E+00 0.340E+00 0.680E+00 0.680E+00 0.841E+00 0.918E+00
         3 0.114E-01 0.215E+00 0.340E+00 0.340E+00 0.680E+00 0.680E+00 0.841E+00 0.918E+00
         4 0.242E-01 0.127E+00 0.127E+00 0.323E+00 0.731E+00 0.731E+00 0.930E+00 0.100E+01
         5 0.114E-01 0.215E+00 0.340E+00 0.340E+00 0.680E+00 0.680E+00 0.841E+00 0.918E+00
         6 0.242E-01 0.127E+00 0.127E+00 0.323E+00 0.731E+00 0.731E+00 0.930E+00 0.100E+01
         7 0.242E-01 0.127E+00 0.127E+00 0.323E+00 0.731E+00 0.731E+00 0.930E+00 0.100E+01
         8 0.340E+00 0.680E+00 0.918E+00 0.918E+00 0.108E+01 0.108E+01 0.122E+01 0.176E+01


 Contracted 2-electron integrals neglected if value below      1.0D-12
 AO integral compression algorithm  1   Integral accuracy      1.0D-12

     32.506 MB (compressed) written to integral file ( 45.2%)


 NUMBER OF SORTED TWO-ELECTRON INTEGRALS:    5465755.     BUFFER LENGTH:  32768
 NUMBER OF SEGMENTS:   1  SEGMENT LENGTH:    5465755      RECORD LENGTH: 524288

 Memory used in sort:       6.02 MW

 SORT1 READ     9044109. AND WROTE     3825599. INTEGRALS IN     11 RECORDS. CPU TIME:     0.21 SEC, REAL TIME:     0.28 SEC
 SORT2 READ     3825599. AND WROTE     5465755. INTEGRALS IN    124 RECORDS. CPU TIME:     0.17 SEC, REAL TIME:     0.32 SEC

 FILE SIZES:   FILE 1:    52.0 MBYTE,  FILE 4:    46.2 MBYTE,   TOTAL:     98.2 MBYTE

 OPERATOR DM      FOR CENTER  0  COORDINATES:    0.000000    0.000000    0.000000
 OPERATOR EKIN    FOR CENTER  0  COORDINATES:    0.000000    0.000000    0.000000
 OPERATOR POT     FOR CENTER  0  COORDINATES:    0.000000    0.000000    0.000000


 **********************************************************************************************************************************
 DATASETS  * FILE   NREC   LENGTH (MB)   RECORD NAMES
              1      20       39.07       500      610      700      900      950      970     1000      129      960     1100   
                                          VAR    BASINP    GEOM    SYMINP    ZMAT    AOBASIS   BASIS     P2S    ABASIS      S 
                                         1400     1410     1420     1200     1210     1080     1600     1650     1300     1700   
                                         EKIN       V       ECP      H0       H01     AOSYM     SMH    MOLCAS    ERIS     OPER   

 PROGRAMS   *        TOTAL       INT
 CPU TIMES  *         2.43      2.33
 REAL TIME  *         4.06 SEC
 DISK USED  *        98.52 MB      
 **********************************************************************************************************************************


 PROGRAM * RHF-SCF (OPEN SHELL)       Authors: W. Meyer, H.-J. Werner


 NUMBER OF ELECTRONS:       6+    5-    SPACE SYMMETRY=1    SPIN SYMMETRY: Doublet 
 CONVERGENCE THRESHOLDS:    1.00E-05 (Density)    1.00E-07 (Energy)
 MAX. NUMBER OF ITERATIONS:       60
 INTERPOLATION TYPE:            DIIS
 INTERPOLATION STEPS:              2 (START)      1 (STEP)
 LEVEL SHIFTS:                 -0.60 (CLOSED) -0.30 (OPEN) 


 Singly occupied orbitals:      3.1
 
 Extra symmetries of mos in symmetry 1:   1   1   3   2

   Atom=SC basis=ECP10MDF_GUESS    lmin=0  lmax=2

 Orbital guess generated from atomic densities. Full valence occupancy:    4   1   1   1   1   1   1   0


 Molecular orbital dump at record        2100.2

 ITERATION    DDIFF          GRAD             ENERGY        2-EL.EN.            DIPOLE MOMENTS         DIIS   ORB.
    1      0.000D+00      0.000D+00       -45.82383815     51.938220    0.00000    0.00000    0.00000    0    start
    2      0.000D+00      0.183D-01       -45.89695549     54.249850    0.00000    0.00000    0.00000    1    diag,B
    3      0.141D-01      0.555D-02       -45.95755068     56.709075    0.00000    0.00000    0.00000    2    diag,B
    4      0.169D-01      0.573D-02       -46.02257916     59.164755    0.00000    0.00000    0.00000    3    diag,B
    5      0.159D-01      0.655D-02       -46.11474014     61.454374    0.00000    0.00000    0.00000    4    diag,B
    6      0.216D-01      0.304D-02       -46.12053044     61.597197    0.00000    0.00000    0.00000    5    diag,B
    7      0.339D-02      0.228D-02       -46.12123607     61.597177    0.00000    0.00000    0.00000    6    fixocc
    8      0.891D-03      0.186D-02       -46.12163386     61.582418    0.00000    0.00000    0.00000    7    diag,B
    9      0.948D-03      0.146D-02       -46.12200225     61.445835    0.00000    0.00000    0.00000    8    diag,B
   10      0.832D-03      0.504D-03       -46.12206830     61.374223    0.00000    0.00000    0.00000    9    orth
   11      0.386D-03      0.118D-03       -46.12207821     61.360353    0.00000    0.00000    0.00000    9    diag,B
   12      0.218D-03      0.393D-04       -46.12207969     61.356584    0.00000    0.00000    0.00000    9    diag,B
   13      0.119D-03      0.339D-04       -46.12208081     61.351353    0.00000    0.00000    0.00000    9    diag,B
   14      0.732D-04      0.209D-04       -46.12208118     61.353736    0.00000    0.00000    0.00000    9    diag,B
   15      0.545D-04      0.629D-05       -46.12208124     61.354305    0.00000    0.00000    0.00000    9    diag,B
   16      0.270D-04      0.220D-05       -46.12208125     61.354527    0.00000    0.00000    0.00000    9    diag,B
   17      0.583D-05      0.101D-05       -46.12208125     61.354548    0.00000    0.00000    0.00000    0    orth

 Final alpha occupancy:   3   1   1   0   1   0   0   0
 Final beta  occupancy:   2   1   1   0   1   0   0   0

 !RHF STATE 1.1 Energy                -46.122081245890
 Nuclear energy                         0.00000000
 One-electron energy                  -76.79935518
 Two-electron energy                   30.67727394
 Virial quotient                       -2.45399490
 !RHF STATE 1.1 Dipole moment           0.00000000     0.00000000     0.00000000
 Dipole moment /Debye                   0.00000000     0.00000000     0.00000000
 

 !RHF expec          <1.1|EKIN|1.1>    18.794693192026
 
 !RHF expec           <1.1|POT|1.1>    -9.373912954863

 ELECTRON ORBITALS
 =================


   Orb  Occ    Energy  Couls-En    Coefficients

                                   1 1s      1 1s      1 1s      1 1s      1 1s      1 1s      1 1s      1 3d0     1 3d2+    1 3d0  
                                   1 3d2+    1 3d0     1 3d2+    1 3d0     1 3d2+    1 3d0     1 3d2+    1 3d0     1 3d2+    1 5g0  
                                   1 5g4+    1 5g2+    1 5g0     1 5g4+    1 5g2+    1 5g0     1 5g4+    1 5g2+ 

   1.1   2    -2.5952  -11.4635  0.999974  0.000082 -0.000046  0.000094 -0.000033  0.000149 -0.000265  0.006167 -0.000000 -0.003769
                                 0.000000  0.002908 -0.000000  0.000050 -0.000000 -0.001658  0.000000  0.000185 -0.000000  0.000042
                                 0.000217 -0.000000 -0.000013 -0.000007  0.000000  0.000230  0.001226 -0.000000

   2.1   2    -0.2108   -3.2789 -0.000110  0.999363  0.000250 -0.000233  0.000093 -0.000682  0.001147  0.024986 -0.000000  0.009670
                                -0.000000 -0.005663  0.000000 -0.001670  0.000000  0.002997 -0.000000 -0.000712  0.000000  0.000079
                                -0.000047 -0.000000 -0.000015 -0.000363  0.000000  0.000139  0.000403 -0.000000

   3.1   +    -0.3470   -6.1702  0.000000  0.000000  0.000000  0.000000 -0.000000  0.000000 -0.000000 -0.000000  0.984206  0.000000
                                -0.275490  0.000000 -0.030332  0.000000 -0.003578  0.000000 -0.008362  0.000000 -0.000063  0.000000
                                 0.000000 -0.000394  0.000000  0.000000 -0.000178  0.000000  0.000000 -0.000520

                                   1 2px     1 2px     1 2px     1 2px     1 2px     1 2px     1 2px     1 4f1+    1 4f3+    1 4f1+ 
                                   1 4f3+    1 4f1+    1 4f3+    1 4f1+    1 4f3+    1 6h1+    1 6h3+    1 6h5+    1 6h1+    1 6h3+ 
                                   1 6h5+ 

   1.2   2    -1.5789   -9.4272  1.000735  0.026219  0.023375  0.005944 -0.000957 -0.005348  0.000136  0.000085 -0.000060 -0.000390
                                 0.000910  0.000539  0.005148  0.002066  0.004172  0.000001  0.000010 -0.000013 -0.000027  0.000035
                                -0.000214

                                   1 2py     1 2py     1 2py     1 2py     1 2py     1 2py     1 2py     1 4f1-    1 4f3-    1 4f1- 
                                   1 4f3-    1 4f1-    1 4f3-    1 4f1-    1 4f3-    1 6h1-    1 6h3-    1 6h5-    1 6h1-    1 6h3- 
                                   1 6h5- 

   1.3   2    -1.5789   -9.4272  1.000735  0.026219  0.023375  0.005944 -0.000957 -0.005348  0.000136  0.000085  0.000060 -0.000390
                                -0.000910  0.000539 -0.005148  0.002066 -0.004172  0.000001 -0.000010 -0.000013 -0.000027 -0.000035
                                -0.000214

                                   1 2pz     1 2pz     1 2pz     1 2pz     1 2pz     1 2pz     1 2pz     1 4f0     1 4f2+    1 4f0  
                                   1 4f2+    1 4f0     1 4f2+    1 4f0     1 4f2+    1 6h2+    1 6h4+    1 6h0     1 6h2+    1 6h4+ 
                                   1 6h0  

   1.5   2    -1.5851   -9.4401  1.000594  0.021479  0.021525  0.005562 -0.001762 -0.002922 -0.000085  0.000085 -0.000000 -0.000185
                                -0.000000  0.002295 -0.000000  0.003867 -0.000000 -0.000000 -0.000005  0.000008  0.000000 -0.000135
                                -0.000033

 HOMO      3.1    -0.346987 =      -9.4420eV
 LUMO      2.5     0.012856 =       0.3498eV
 LUMO-HOMO         0.359843 =       9.7918eV


 **********************************************************************************************************************************
 DATASETS  * FILE   NREC   LENGTH (MB)   RECORD NAMES
              1      20       39.07       500      610      700      900      950      970     1000      129      960     1100   
                                          VAR    BASINP    GEOM    SYMINP    ZMAT    AOBASIS   BASIS     P2S    ABASIS      S 
                                         1400     1410     1420     1200     1210     1080     1600     1650     1300     1700   
                                         EKIN       V       ECP      H0       H01     AOSYM     SMH    MOLCAS    ERIS     OPER   

              2       4        2.85       700     1000      520     2100   
                                         GEOM     BASIS   MCVARS     RHF  

 PROGRAMS   *        TOTAL        HF       INT
 CPU TIMES  *         2.72      0.28      2.33
 REAL TIME  *         4.59 SEC
 DISK USED  *        98.52 MB      
 **********************************************************************************************************************************
 SETTING SCF(I)         =       -46.12208125  AU                              
 SETTING _CC_NORM_MAX   =         2.00000000                                  


 PROGRAM * CCSD (Unrestricted open-shell coupled cluster)     Authors: C. Hampel, H.-J. Werner, 1991, M. Deegan, P.J. Knowles, 1992


 Convergence thresholds:  THRVAR = 1.00D-08  THRDEN = 1.00D-06

 CCSD(T)     terms to be evaluated (factor= 1.000)


 Number of closed-shell orbitals:   5 (   2   1   1   0   1   0   0   0 )
 Number of active  orbitals:        1 (   1   0   0   0   0   0   0   0 )
 Number of external orbitals:     129 (  25  20  20  12  20  12  12   8 )

 Memory could be reduced to 4.21 Mwords without degradation in triples

 Number of N-1 electron functions:              11
 Number of N-2 electron functions:              55
 Number of singly external CSFs:               250
 Number of doubly external CSFs:             93440
 Total number of CSFs:                       93690

 Molecular orbitals read from record     2100.2  Type=RHF/CANONICAL (state 1.1)

 Integral transformation finished. Total CPU:   0.07 sec, npass=  1  Memory used:   0.68 MW

 Starting RMP2 calculation

 ITER.      SQ.NORM     CORR.ENERGY   TOTAL ENERGY   ENERGY CHANGE        DEN1      VAR(S)    VAR(P)  DIIS     TIME
   1      1.09840145    -0.33629049   -46.45837173    -0.33629049    -0.00144282  0.11D-04  0.13D-02  1  1     0.07
   2      1.10204812    -0.33786807   -46.45994931    -0.00157758    -0.00003269  0.62D-06  0.43D-04  2  2     0.07
   3      1.10282654    -0.33807358   -46.46015482    -0.00020551    -0.00000015  0.11D-07  0.17D-06  3  3     0.08
   4      1.10285162    -0.33807722   -46.46015847    -0.00000364    -0.00000000  0.52D-09  0.20D-08  4  4     0.08
   5      1.10285221    -0.33807720   -46.46015845     0.00000002    -0.00000000  0.24D-10  0.12D-10  5  5     0.08

 Norm of t1 vector:      0.02909673      S-energy:    -0.00227170      T1 diagnostic:  0.00007609
 Norm of t2 vector:      0.31938314      P-energy:    -0.33580550
                                         Alpha-Beta:  -0.24948710
                                         Alpha-Alpha: -0.04754259
                                         Beta-Beta:   -0.03877581

 Spin contamination <S**2-Sz**2-Sz>     0.00189413
  Reference energy                    -46.122081245890
  RHF-RMP2 correlation energy          -0.338077201622
 !RHF-RMP2 energy                     -46.460158447511

 Starting UCCSD calculation

 ITER.      SQ.NORM     CORR.ENERGY   TOTAL ENERGY   ENERGY CHANGE        DEN1      VAR(S)    VAR(P)  DIIS     TIME
   1      1.10874172    -0.34977112   -46.47185236    -0.34977112    -0.00812553  0.19D-02  0.33D-02  1  1     0.22
   2      1.12748102    -0.35857821   -46.48065945    -0.00880709    -0.00084090  0.34D-03  0.61D-03  2  2     0.34
   3      1.13907976    -0.36072911   -46.48281036    -0.00215091    -0.00014934  0.98D-04  0.98D-04  3  3     0.46
   4      1.14620149    -0.36174310   -46.48382435    -0.00101399    -0.00002010  0.12D-04  0.12D-04  4  4     0.59
   5      1.14898949    -0.36202106   -46.48410231    -0.00027796    -0.00000383  0.25D-05  0.20D-05  5  5     0.70
   6      1.14949048    -0.36204661   -46.48412785    -0.00002555    -0.00000140  0.12D-05  0.62D-06  6  6     0.82
   7      1.14971351    -0.36205508   -46.48413632    -0.00000847    -0.00000044  0.48D-06  0.14D-06  6  1     0.95
   8      1.14977776    -0.36204935   -46.48413059     0.00000573    -0.00000014  0.13D-06  0.58D-07  6  2     1.07
   9      1.14986755    -0.36205452   -46.48413576    -0.00000517    -0.00000004  0.37D-07  0.19D-07  6  3     1.19
  10      1.14991329    -0.36205571   -46.48413695    -0.00000119    -0.00000002  0.10D-07  0.96D-08  6  4     1.31
  11      1.14993309    -0.36205660   -46.48413784    -0.00000089    -0.00000001  0.36D-08  0.43D-08  6  5     1.43

 Norm of t1 vector:      0.11306653      S-energy:    -0.00229485      T1 diagnostic:  0.02202960
                                                                       D1 diagnostic:  0.06907593
 Norm of t2 vector:      0.37033641      P-energy:    -0.35976175
                                         Alpha-Beta:  -0.27639784
                                         Alpha-Alpha: -0.04649947
                                         Beta-Beta:   -0.03686443

 Singles amplitudes (print threshold =  0.500E-01):

         I         SYM. A    A   T(IA) [Alpha-Alpha]

         2         1         8      0.06243316

 Doubles amplitudes (print threshold =  0.500E-01):

         I         J         SYM. A    SYM. B    A         B      T(IJ, AB) [Alpha-Beta]

         2         2         5         5         1         1     -0.05326674
         2         2         5         5         1         2      0.05356679
         2         2         5         5         2         1      0.05379665
         2         2         5         5         2         2     -0.05441743

 Spin contamination <S**2-Sz**2-Sz>     0.00778193

 Memory could be reduced to 4.23 Mwords without degradation in triples
 

  Correlated core orbitals:             1.1       1.2       1.3       1.5
  Orbital energies:                    -2.6244   -1.6305   -1.6305   -1.5921
 
  UCCSD core-core energy               -0.247459563193
  UCCSD core-valence energy            -0.078271061734
  UCCSD valence correlation energy     -0.036325971056
 

 RESULTS
 =======

  Reference energy                    -46.122081245890
  UCCSD singles energy                 -0.002294850153
  UCCSD pair energy                    -0.359761745830
  UCCSD correlation energy             -0.362056595982
  Triples (T) contribution             -0.013046836877
  Total correlation energy             -0.375103432860
 
  RHF-UCCSD energy                    -46.484137841872
  RHF-UCCSD[T] energy                 -46.497427419983
  RHF-UCCSD-T energy                  -46.497167662840
 !RHF-UCCSD(T) energy                 -46.497184678749

 Program statistics:

 Available memory in ccsd:               511999552
 Min. memory needed in ccsd:                325163
 Max. memory used in ccsd:                  431017
 Max. memory used in cckext:                370031 (11 integral passes)
 Max. memory used in cckint:                683521 ( 1 integral passes)



 **********************************************************************************************************************************
 DATASETS  * FILE   NREC   LENGTH (MB)   RECORD NAMES
              1      20       39.07       500      610      700      900      950      970     1000      129      960     1100   
                                          VAR    BASINP    GEOM    SYMINP    ZMAT    AOBASIS   BASIS     P2S    ABASIS      S 
                                         1400     1410     1420     1200     1210     1080     1600     1650     1300     1700   
                                         EKIN       V       ECP      H0       H01     AOSYM     SMH    MOLCAS    ERIS     OPER   

              2       4        2.85       700     1000      520     2100   
                                         GEOM     BASIS   MCVARS     RHF  

 PROGRAMS   *        TOTAL  UCCSD(T)        HF       INT
 CPU TIMES  *         5.36      2.64      0.28      2.33
 REAL TIME  *         8.99 SEC
 DISK USED  *        98.52 MB      
 **********************************************************************************************************************************
 SETTING POSTHF(I)      =       -46.49718468  AU                              
                                                                                                                                                                                                                                                                

        SCF            POSTHF        EKIN          POT
    -46.12208125   -46.49718468   18.79469319   -9.37391295
                                                  

 UCCSD(T)/USERDEF energy=    -46.497184678749

        UCCSD(T)        HF-SCF  
    -46.49718468    -46.12208125
 **********************************************************************************************************************************
 Variable memory released
