
 Primary working directories    : /global/cscratch1/sd/aannabe
 Secondary working directories  : /global/cscratch1/sd/aannabe
 Wavefunction directory         : /global/homes/a/aannabe/wfu/
 Main file repository           : /global/cscratch1/sd/aannabe/

 SHA1      : 2873118e99aab1bc19f5b6fc1784693c06d15c95
 NAME      : 2015.1.8
 ARCHNAME  : linux/x86_64
 FC        : /opt/cray/pe/craype/2.5.5/bin/ftn
 BLASLIB   : -Wl,-_start-group /opt/intel/compilers_and_libraries_2016.3.210/linux/mkl/lib/intel64/libmkl_intel_ilp64.a /opt/intel/compilers_and_libraries_2016.3.210/linux/mkl/lib/intel64/libmkl_intel_thread.a /opt/intel/compilers_and_libraries_2016.3.210/linux/mkl/lib/intel64/libmkl_core.a -Wl,-_end-group
 id        : lbl

 Nodes     nprocs
 nid00458     1

 Using customized tuning parameters: mindgm=8; mindgv=16; mindgc=4; mindgr=1; noblas=0; minvec=7
 default implementation of scratch files=df  

 ***,V
 memory,512,m
 gthresh,twoint=1.e-12
 
 gprint,basis,orbitals
 gexpec,ekin,pot
 
 angstrom
 geometry={
 1                                                                               ! Number of atoms
 V 0.0 0.0 0.0
 }
 
 basis={
 Including file /global/homes/a/aannabe/docs/totals/pps/V.pp
 Including file /global/homes/a/aannabe/docs/totals/basis/aug-cc-pVnZ/V_tz.basis
 }
 
 {hf
 wf,13,6,3
 occ,4,1,1,0,1,1,0,0
 open,3.1,4.1,1.6
 sym,1,1,1
 }
 scf(i)=energy
 
 _CC_NORM_MAX=2.0
 {uccsd(t)
 maxit,100
 core
 }
 posthf(i)=energy
 
 table,scf,posthf,ekin,pot
 save,3.csv,new
 
 

 Variables initialized (889), CPU time= 0.00 sec
 Commands  initialized (702), CPU time= 0.02 sec, 572 directives.
 Default parameters read. Elapsed time= 0.18 sec

 Checking input...
 Passed
1


                                         ***  PROGRAM SYSTEM MOLPRO  ***
                                       Copyright, TTI GmbH Stuttgart, 2015
                                    Version 2015.1 linked Sep  7 2016 23:09:38


 **********************************************************************************************************************************
 LABEL *   V                                                                             
  64 bit serial version                                                                  DATE: 12-Jun-18          TIME: 14:02:19  
 **********************************************************************************************************************************

 SHA1:             2873118e99aab1bc19f5b6fc1784693c06d15c95
 **********************************************************************************************************************************

 THRESHOLDS:

 ZERO    =  1.00D-12  ONEINT  =  1.00D-12  TWOINT  =  1.00D-12  PREFAC  =  1.00D-14  LOCALI  =  1.00D-09  EORDER  =  1.00D-04
 ENERGY  =  0.00D+00  ETEST   =  0.00D+00  EDENS   =  0.00D+00  THRDEDEF=  1.00D-06  GRADIENT=  1.00D-02  STEP    =  1.00D-03
 ORBITAL =  1.00D-05  CIVEC   =  1.00D-05  COEFF   =  1.00D-04  PRINTCI =  5.00D-02  PUNCHCI =  9.90D+01  OPTGRAD =  3.00D-04
 OPTENERG=  1.00D-06  OPTSTEP =  3.00D-04  THRGRAD =  1.00D-10  COMPRESS=  1.00D-11  VARMIN  =  1.00D-07  VARMAX  =  1.00D-03
 THRDOUB =  0.00D+00  THRDIV  =  1.00D-05  THRRED  =  1.00D-07  THRPSP  =  1.00D+00  THRDC   =  1.00D-10  THRCS   =  1.00D-10
 THRNRM  =  1.00D-08  THREQ   =  0.00D+00  THRDE   =  1.00D+00  THRREF  =  1.00D-05  SPARFAC =  1.00D+00  THRDLP  =  1.00D-07
 THRDIA  =  1.00D-10  THRDLS  =  1.00D-07  THRGPS  =  0.00D+00  THRKEX  =  0.00D+00  THRDIS  =  2.00D-01  THRVAR  =  1.00D-10
 THRLOC  =  1.00D-06  THRGAP  =  1.00D-06  THRLOCT = -1.00D+00  THRGAPT = -1.00D+00  THRORB  =  1.00D-06  THRMLTP =  0.00D+00
 THRCPQCI=  1.00D-10  KEXTA   =  0.00D+00  THRCOARS=  0.00D+00  SYMTOL  =  1.00D-06  GRADTOL =  1.00D-06  THROVL  =  1.00D-08
 THRORTH =  1.00D-08  GRID    =  1.00D-06  GRIDMAX =  1.00D-03  DTMAX   =  0.00D+00  THROCCDE=  1.00D-01  THROCCDE=  1.00D-01



 ZUNIT=ANG
 

Geometry recognized as XYZ


 Variable memory set to  512000000 words,  buffer space   230000 words

 SETTING BASIS          =    USERDEF


 Recomputing integrals since basis changed


 Using spherical harmonics



 PROGRAM * SEWARD (Integral evaluation for generally contracted gaussian basis sets)     Author: Roland Lindh, 1990

 Geometry written to block  1 of record 700

 Orientation using atomic masses  
 Molecule type: Atom
 Symmetry elements: X,Y,Z
 Rotational constants:       0.0000000      0.0000000      0.0000000 GHz  (calculated with average atomic masses)

 Point group  D2h 



 ATOMIC COORDINATES

 NR  ATOM    CHARGE       X              Y              Z

   1  V      13.00    0.000000000    0.000000000    0.000000000


          V   CORE POTENTIAL

          d POTENTIAL

 POWERS             1              3              2              2
 EXPONENTIALS   20.32169       19.59698       17.33147       5.123207    
 COEFFICIENTS   13.00000       264.1820      -115.2929     -0.6628873    

          s - d POTENTIAL

 POWERS             2              2
 EXPONENTIALS   15.12502       6.298989    
 COEFFICIENTS   195.5671       22.88643    

          p - d POTENTIAL

 POWERS             2              2
 EXPONENTIALS   15.93855       5.740063    
 COEFFICIENTS   126.4212       16.03597    


 BASIS DATA

   Nr Sym  Nuc  Type         Exponents   Contraction coefficients

    1.1 Ag    1  1s          68.577621     0.000804   -0.000177   -0.000583   -0.000765    0.000000
    2.1 Ag                   34.937147    -0.011594    0.002791    0.009570    0.014529    0.000000
    3.1 Ag                   17.939491     0.092209   -0.023650   -0.085606   -0.139618    0.000000
    4.1 Ag                   11.262123    -0.045477    0.012504    0.048426    0.063073    0.000000
    5.1 Ag                    6.776264    -0.287983    0.078761    0.331239    0.704193    0.000000
                              3.524091    -0.217648    0.054974    0.140352   -0.011602    0.000000
                              1.938421     0.407509   -0.118955   -0.907962   -2.311604    0.000000
                              0.927153     0.658193   -0.245341   -0.503878    0.768269    0.000000
                              0.448420     0.255234   -0.222959    0.398938    2.168920    0.000000
                              0.209668     0.008620    0.047809    0.971131   -1.062671    0.000000
                              0.103660     0.002734    0.415374    0.423999   -1.218151    0.000000
                              0.050630    -0.001161    0.540880   -0.628646    0.340809    0.000000
                              0.024201     0.000294    0.183421   -0.467495    0.713322    1.000000
    6.1 Ag    1  1s           0.012000     1.000000
    7.1 Ag    1  3d0         89.989649     0.000051
                             33.132961     0.004804
                             15.879656     0.029485
                              7.465803     0.086249
                              3.551993     0.179728
                              1.728185     0.261850
                              0.850498     0.291794
                              0.417673     0.259356
                              0.201523     0.174944
                              0.100711     0.062278
                              0.058959     0.027653
    8.1 Ag    1  3d2+        89.989649     0.000051
                             33.132961     0.004804
                             15.879656     0.029485
                              7.465803     0.086249
                              3.551993     0.179728
                              1.728185     0.261850
                              0.850498     0.291794
                              0.417673     0.259356
                              0.201523     0.174944
                              0.100711     0.062278
                              0.058959     0.027653
    9.1 Ag    1  3d0         89.989649    -0.000038
                             33.132961    -0.004590
                             15.879656    -0.027563
                              7.465803    -0.082775
                              3.551993    -0.173494
                              1.728185    -0.236188
                              0.850498    -0.149226
                              0.417673     0.044145
                              0.201523     0.390500
                              0.100711     0.203064
                              0.058959     0.398002
   10.1 Ag    1  3d2+        89.989649    -0.000038
                             33.132961    -0.004590
                             15.879656    -0.027563
                              7.465803    -0.082775
                              3.551993    -0.173494
                              1.728185    -0.236188
                              0.850498    -0.149226
                              0.417673     0.044145
                              0.201523     0.390500
                              0.100711     0.203064
                              0.058959     0.398002
   11.1 Ag    1  3d0         89.989649     0.000128
                             33.132961     0.006652
                             15.879656     0.044635
                              7.465803     0.122559
                              3.551993     0.311147
                              1.728185     0.288813
                              0.850498    -0.142246
                              0.417673    -0.613737
                              0.201523    -0.123916
                              0.100711    -0.020235
                              0.058959     0.733259
   12.1 Ag    1  3d2+        89.989649     0.000128
                             33.132961     0.006652
                             15.879656     0.044635
                              7.465803     0.122559
                              3.551993     0.311147
                              1.728185     0.288813
                              0.850498    -0.142246
                              0.417673    -0.613737
                              0.201523    -0.123916
                              0.100711    -0.020235
                              0.058959     0.733259
   13.1 Ag    1  3d0         89.989649     0.000000
                             33.132961     0.000000
                             15.879656     0.000000
                              7.465803     0.000000
                              3.551993     0.000000
                              1.728185     0.000000
                              0.850498     0.000000
                              0.417673     0.000000
                              0.201523     0.000000
                              0.100711     0.000000
                              0.058959     1.000000
   14.1 Ag    1  3d2+        89.989649     0.000000
                             33.132961     0.000000
                             15.879656     0.000000
                              7.465803     0.000000
                              3.551993     0.000000
                              1.728185     0.000000
                              0.850498     0.000000
                              0.417673     0.000000
                              0.201523     0.000000
                              0.100711     0.000000
                              0.058959     1.000000
   15.1 Ag    1  3d0          0.027000     1.000000
   16.1 Ag    1  3d2+         0.027000     1.000000
   17.1 Ag    1  5g0          0.616440     1.000000
   18.1 Ag    1  5g4+         0.616440     1.000000
   19.1 Ag    1  5g2+         0.616440     1.000000
   20.1 Ag    1  5g0          1.977796     1.000000
   21.1 Ag    1  5g4+         1.977796     1.000000
   22.1 Ag    1  5g2+         1.977796     1.000000
    1.2 B3u   1  2px         96.215967     0.000069    0.000040   -0.000053   -0.001262    0.000000
    2.2 B3u                  49.579340    -0.000672   -0.000133    0.000023    0.006419    0.000000
    3.2 B3u                  25.638009     0.008199   -0.000955    0.004629   -0.021229    0.000000
    4.2 B3u                  14.025942    -0.027108    0.003719   -0.007755    0.115777    0.000000
    5.2 B3u                   8.740334    -0.053021    0.018866   -0.104133   -0.420740    0.000000
                              4.634840     0.005002   -0.012074   -0.017762    0.197742    0.000000
                              2.553374     0.261986   -0.057107    0.728212    1.575600    0.000000
                              1.321166     0.433544   -0.146433    0.218826   -1.067913    0.000000
                              0.681285     0.324947   -0.067365   -0.493223   -1.310083    0.000000
                              0.349458     0.092342   -0.068254   -0.838192    1.191147    0.000000
                              0.172773     0.008964    0.403103    0.398401    0.550516    0.000000
                              0.063300     0.001185    0.502668    0.664589   -0.718788    0.000000
                              0.033969     0.000104    0.261291    0.033011   -0.157441    1.000000
    6.2 B3u   1  2px          0.016000     1.000000
    7.2 B3u   1  4f1+         0.131136     1.000000
    8.2 B3u   1  4f3+         0.131136     1.000000
    9.2 B3u   1  4f1+         0.552620     1.000000
   10.2 B3u   1  4f3+         0.552620     1.000000
   11.2 B3u   1  4f1+         2.328788     1.000000
   12.2 B3u   1  4f3+         2.328788     1.000000
    1.3 B2u   1  2py         96.215967     0.000069    0.000040   -0.000053   -0.001262    0.000000
    2.3 B2u                  49.579340    -0.000672   -0.000133    0.000023    0.006419    0.000000
    3.3 B2u                  25.638009     0.008199   -0.000955    0.004629   -0.021229    0.000000
    4.3 B2u                  14.025942    -0.027108    0.003719   -0.007755    0.115777    0.000000
    5.3 B2u                   8.740334    -0.053021    0.018866   -0.104133   -0.420740    0.000000
                              4.634840     0.005002   -0.012074   -0.017762    0.197742    0.000000
                              2.553374     0.261986   -0.057107    0.728212    1.575600    0.000000
                              1.321166     0.433544   -0.146433    0.218826   -1.067913    0.000000
                              0.681285     0.324947   -0.067365   -0.493223   -1.310083    0.000000
                              0.349458     0.092342   -0.068254   -0.838192    1.191147    0.000000
                              0.172773     0.008964    0.403103    0.398401    0.550516    0.000000
                              0.063300     0.001185    0.502668    0.664589   -0.718788    0.000000
                              0.033969     0.000104    0.261291    0.033011   -0.157441    1.000000
    6.3 B2u   1  2py          0.016000     1.000000
    7.3 B2u   1  4f1-         0.131136     1.000000
    8.3 B2u   1  4f3-         0.131136     1.000000
    9.3 B2u   1  4f1-         0.552620     1.000000
   10.3 B2u   1  4f3-         0.552620     1.000000
   11.3 B2u   1  4f1-         2.328788     1.000000
   12.3 B2u   1  4f3-         2.328788     1.000000
    1.4 B1g   1  3d2-        89.989649     0.000051   -0.000038    0.000128    0.000000
    2.4 B1g                  33.132961     0.004804   -0.004590    0.006652    0.000000
    3.4 B1g                  15.879656     0.029485   -0.027563    0.044635    0.000000
    4.4 B1g                   7.465803     0.086249   -0.082775    0.122559    0.000000
                              3.551993     0.179728   -0.173494    0.311147    0.000000
                              1.728185     0.261850   -0.236188    0.288813    0.000000
                              0.850498     0.291794   -0.149226   -0.142246    0.000000
                              0.417673     0.259356    0.044145   -0.613737    0.000000
                              0.201523     0.174944    0.390500   -0.123916    0.000000
                              0.100711     0.062278    0.203064   -0.020235    0.000000
                              0.058959     0.027653    0.398002    0.733259    1.000000
    5.4 B1g   1  3d2-         0.027000     1.000000
    6.4 B1g   1  5g2-         0.616440     1.000000
    7.4 B1g   1  5g4-         0.616440     1.000000
    8.4 B1g   1  5g2-         1.977796     1.000000
    9.4 B1g   1  5g4-         1.977796     1.000000
    1.5 B1u   1  2pz         96.215967     0.000069    0.000040   -0.000053   -0.001262    0.000000
    2.5 B1u                  49.579340    -0.000672   -0.000133    0.000023    0.006419    0.000000
    3.5 B1u                  25.638009     0.008199   -0.000955    0.004629   -0.021229    0.000000
    4.5 B1u                  14.025942    -0.027108    0.003719   -0.007755    0.115777    0.000000
    5.5 B1u                   8.740334    -0.053021    0.018866   -0.104133   -0.420740    0.000000
                              4.634840     0.005002   -0.012074   -0.017762    0.197742    0.000000
                              2.553374     0.261986   -0.057107    0.728212    1.575600    0.000000
                              1.321166     0.433544   -0.146433    0.218826   -1.067913    0.000000
                              0.681285     0.324947   -0.067365   -0.493223   -1.310083    0.000000
                              0.349458     0.092342   -0.068254   -0.838192    1.191147    0.000000
                              0.172773     0.008964    0.403103    0.398401    0.550516    0.000000
                              0.063300     0.001185    0.502668    0.664589   -0.718788    0.000000
                              0.033969     0.000104    0.261291    0.033011   -0.157441    1.000000
    6.5 B1u   1  2pz          0.016000     1.000000
    7.5 B1u   1  4f0          0.131136     1.000000
    8.5 B1u   1  4f2+         0.131136     1.000000
    9.5 B1u   1  4f0          0.552620     1.000000
   10.5 B1u   1  4f2+         0.552620     1.000000
   11.5 B1u   1  4f0          2.328788     1.000000
   12.5 B1u   1  4f2+         2.328788     1.000000
    1.6 B2g   1  3d1+        89.989649     0.000051   -0.000038    0.000128    0.000000
    2.6 B2g                  33.132961     0.004804   -0.004590    0.006652    0.000000
    3.6 B2g                  15.879656     0.029485   -0.027563    0.044635    0.000000
    4.6 B2g                   7.465803     0.086249   -0.082775    0.122559    0.000000
                              3.551993     0.179728   -0.173494    0.311147    0.000000
                              1.728185     0.261850   -0.236188    0.288813    0.000000
                              0.850498     0.291794   -0.149226   -0.142246    0.000000
                              0.417673     0.259356    0.044145   -0.613737    0.000000
                              0.201523     0.174944    0.390500   -0.123916    0.000000
                              0.100711     0.062278    0.203064   -0.020235    0.000000
                              0.058959     0.027653    0.398002    0.733259    1.000000
    5.6 B2g   1  3d1+         0.027000     1.000000
    6.6 B2g   1  5g1+         0.616440     1.000000
    7.6 B2g   1  5g3+         0.616440     1.000000
    8.6 B2g   1  5g1+         1.977796     1.000000
    9.6 B2g   1  5g3+         1.977796     1.000000
    1.7 B3g   1  3d1-        89.989649     0.000051   -0.000038    0.000128    0.000000
    2.7 B3g                  33.132961     0.004804   -0.004590    0.006652    0.000000
    3.7 B3g                  15.879656     0.029485   -0.027563    0.044635    0.000000
    4.7 B3g                   7.465803     0.086249   -0.082775    0.122559    0.000000
                              3.551993     0.179728   -0.173494    0.311147    0.000000
                              1.728185     0.261850   -0.236188    0.288813    0.000000
                              0.850498     0.291794   -0.149226   -0.142246    0.000000
                              0.417673     0.259356    0.044145   -0.613737    0.000000
                              0.201523     0.174944    0.390500   -0.123916    0.000000
                              0.100711     0.062278    0.203064   -0.020235    0.000000
                              0.058959     0.027653    0.398002    0.733259    1.000000
    5.7 B3g   1  3d1-         0.027000     1.000000
    6.7 B3g   1  5g1-         0.616440     1.000000
    7.7 B3g   1  5g3-         0.616440     1.000000
    8.7 B3g   1  5g1-         1.977796     1.000000
    9.7 B3g   1  5g3-         1.977796     1.000000
    1.8 Au    1  4f2-         0.131136     1.000000
    2.8 Au    1  4f2-         0.552620     1.000000
    3.8 Au    1  4f2-         2.328788     1.000000

 NUCLEAR CHARGE:                   13
 NUMBER OF PRIMITIVE AOS:         188
 NUMBER OF SYMMETRY AOS:          155
 NUMBER OF CONTRACTIONS:           88   (  22Ag  +  12B3u +  12B2u +   9B1g +  12B1u +   9B2g +   9B3g +   3Au  )
 NUMBER OF CORE ORBITALS:           4   (   1Ag  +   1B3u +   1B2u +   0B1g +   1B1u +   0B2g +   0B3g +   0Au  )
 NUMBER OF VALENCE ORBITALS:        6   (   3Ag  +   0B3u +   0B2u +   1B1g +   0B1u +   1B2g +   1B3g +   0Au  )


 NUCLEAR REPULSION ENERGY    0.00000000

 EXTRA SYMMETRY OF AOS IN SYMMETRY 1:   1 1 1 1 1 1 2 3 2 3   2 3 2 3 2 3 4 5 6 4   5 6
 EXTRA SYMMETRY OF AOS IN SYMMETRY 2:   1 1 1 1 1 1 2 3 2 3   2 3
 EXTRA SYMMETRY OF AOS IN SYMMETRY 3:   1 1 1 1 1 1 2 3 2 3   2 3
 EXTRA SYMMETRY OF AOS IN SYMMETRY 4:   1 1 1 1 1 2 3 2 3
 EXTRA SYMMETRY OF AOS IN SYMMETRY 5:   1 1 1 1 1 1 2 3 2 3   2 3
 EXTRA SYMMETRY OF AOS IN SYMMETRY 6:   1 1 1 1 1 2 3 2 3
 EXTRA SYMMETRY OF AOS IN SYMMETRY 7:   1 1 1 1 1 2 3 2 3

 Eigenvalues of metric

         1 0.577E-02 0.208E-01 0.208E-01 0.133E+00 0.333E+00 0.333E+00 0.588E+00 0.588E+00
         2 0.262E-01 0.382E+00 0.516E+00 0.531E+00 0.531E+00 0.973E+00 0.973E+00 0.100E+01
         3 0.262E-01 0.382E+00 0.516E+00 0.531E+00 0.531E+00 0.973E+00 0.973E+00 0.100E+01
         4 0.208E-01 0.333E+00 0.588E+00 0.588E+00 0.100E+01 0.102E+01 0.141E+01 0.141E+01
         5 0.262E-01 0.382E+00 0.516E+00 0.531E+00 0.531E+00 0.973E+00 0.973E+00 0.100E+01
         6 0.208E-01 0.333E+00 0.588E+00 0.588E+00 0.100E+01 0.102E+01 0.141E+01 0.141E+01
         7 0.208E-01 0.333E+00 0.588E+00 0.588E+00 0.100E+01 0.102E+01 0.141E+01 0.141E+01
         8 0.531E+00 0.973E+00 0.150E+01


 Contracted 2-electron integrals neglected if value below      1.0D-12
 AO integral compression algorithm  1   Integral accuracy      1.0D-12

     8.126 MB (compressed) written to integral file ( 53.1%)


 NUMBER OF SORTED TWO-ELECTRON INTEGRALS:    1019164.     BUFFER LENGTH:  32768
 NUMBER OF SEGMENTS:   1  SEGMENT LENGTH:    1019164      RECORD LENGTH: 524288

 Memory used in sort:       1.58 MW

 SORT1 READ     1855900. AND WROTE      770922. INTEGRALS IN      3 RECORDS. CPU TIME:     0.05 SEC, REAL TIME:     0.08 SEC
 SORT2 READ      770922. AND WROTE     1019164. INTEGRALS IN     31 RECORDS. CPU TIME:     0.08 SEC, REAL TIME:     0.12 SEC

 FILE SIZES:   FILE 1:    27.4 MBYTE,  FILE 4:    12.6 MBYTE,   TOTAL:     40.0 MBYTE

 OPERATOR DM      FOR CENTER  0  COORDINATES:    0.000000    0.000000    0.000000
 OPERATOR EKIN    FOR CENTER  0  COORDINATES:    0.000000    0.000000    0.000000
 OPERATOR POT     FOR CENTER  0  COORDINATES:    0.000000    0.000000    0.000000


 **********************************************************************************************************************************
 DATASETS  * FILE   NREC   LENGTH (MB)   RECORD NAMES
              1      20       23.62       500      610      700      900      950      970     1000      129      960     1100   
                                          VAR    BASINP    GEOM    SYMINP    ZMAT    AOBASIS   BASIS     P2S    ABASIS      S 
                                         1400     1410     1420     1200     1210     1080     1600     1650     1300     1700   
                                         EKIN       V       ECP      H0       H01     AOSYM     SMH    MOLCAS    ERIS     OPER   

 PROGRAMS   *        TOTAL       INT
 CPU TIMES  *         1.65      1.52
 REAL TIME  *         4.56 SEC
 DISK USED  *        40.32 MB      
 **********************************************************************************************************************************


 PROGRAM * RHF-SCF (OPEN SHELL)       Authors: W. Meyer, H.-J. Werner


 NUMBER OF ELECTRONS:       8+    5-    SPACE SYMMETRY=6    SPIN SYMMETRY: Quartet 
 CONVERGENCE THRESHOLDS:    1.00E-05 (Density)    1.00E-07 (Energy)
 MAX. NUMBER OF ITERATIONS:       60
 INTERPOLATION TYPE:            DIIS
 INTERPOLATION STEPS:              2 (START)      1 (STEP)
 LEVEL SHIFTS:                 -0.60 (CLOSED) -0.30 (OPEN) 


 Singly occupied orbitals:      3.1       4.1       1.6
 
 Extra symmetries of mos in symmetry 1:   1   1

   Atom=V  basis=ECP10MDF_GUESS    lmin=0  lmax=2

 Orbital guess generated from atomic densities. Full valence occupancy:    4   1   1   1   1   1   1   0


 Molecular orbital dump at record        2100.2

 ITERATION    DDIFF          GRAD             ENERGY        2-EL.EN.            DIPOLE MOMENTS         DIIS   ORB.
    1      0.000D+00      0.000D+00       -70.68941177     93.811838    0.00000    0.00000    0.00000    0    start
    2      0.000D+00      0.295D-01       -70.85786378    100.792752    0.00000    0.00000    0.00000    1    diag,B
    3      0.158D-01      0.166D-01       -70.87569713    100.390882    0.00000    0.00000    0.00000    2    diag,B
    4      0.420D-02      0.657D-02       -70.88576528    100.573922    0.00000    0.00000    0.00000    3    diag,B
    5      0.556D-02      0.130D-02       -70.88676823    100.633072    0.00000    0.00000    0.00000    4    diag,B
    6      0.164D-02      0.462D-03       -70.88690630    100.562198    0.00000    0.00000    0.00000    5    diag,B
    7      0.204D-02      0.157D-03       -70.88692399    100.533047    0.00000    0.00000    0.00000    6    fixocc
    8      0.104D-02      0.563D-04       -70.88692649    100.528049    0.00000    0.00000    0.00000    7    diag,B
    9      0.242D-03      0.351D-04       -70.88692810    100.522834    0.00000    0.00000    0.00000    8    diag,B
   10      0.403D-03      0.791D-05       -70.88692816    100.522567    0.00000    0.00000    0.00000    9    orth
   11      0.840D-04      0.152D-05       -70.88692816    100.522519    0.00000    0.00000    0.00000    9    diag,B
   12      0.649D-05      0.284D-06       -70.88692814    100.522449    0.00000    0.00000    0.00000    0    orth

 Final alpha occupancy:   4   1   1   0   1   1   0   0
 Final beta  occupancy:   2   1   1   0   1   0   0   0

 !RHF STATE 1.6 Energy                -70.886928144290
 Nuclear energy                         0.00000000
 One-electron energy                 -121.14815269
 Two-electron energy                   50.26122455
 Virial quotient                       -2.05235713
 !RHF STATE 1.6 Dipole moment           0.00000000     0.00000000     0.00000000
 Dipole moment /Debye                   0.00000000     0.00000000     0.00000000
 

 !RHF expec          <1.6|EKIN|1.6>    34.539275397889
 
 !RHF expec           <1.6|POT|1.6>   -12.768639161518

 ELECTRON ORBITALS
 =================


   Orb  Occ    Energy  Couls-En    Coefficients

                                   1 1s      1 1s      1 1s      1 1s      1 1s      1 1s      1 3d0     1 3d2+    1 3d0     1 3d2+ 
                                   1 3d0     1 3d2+    1 3d0     1 3d2+    1 3d0     1 3d2+    1 5g0     1 5g4+    1 5g2+    1 5g0  
                                   1 5g4+    1 5g2+ 

   1.1   2    -3.2344  -15.1577  0.999842 -0.000242  0.000121  0.000034  0.000270 -0.000121 -0.007030 -0.012175  0.002566  0.004444
                                -0.000359 -0.000622 -0.000987 -0.001710  0.000159  0.000276  0.000430  0.000848  0.000641  0.000316
                                 0.000623  0.000471

   2.1   2    -0.2326   -4.2554 -0.000128  0.999778 -0.000372  0.000068 -0.000479  0.000406 -0.012000 -0.020785 -0.009891 -0.017132
                                -0.001286 -0.002227  0.003187  0.005520 -0.000497 -0.000862 -0.000055 -0.000109 -0.000082  0.000115
                                 0.000226  0.000171

   3.1   +    -0.5360   -8.9527  0.014750  0.020066  0.003591 -0.000841  0.000515  0.000287  0.493371  0.854543 -0.053985 -0.093504
                                -0.007799 -0.013509  0.014129  0.024472  0.000636  0.001101 -0.001620 -0.003195 -0.002415 -0.001240
                                -0.002446 -0.001849

   4.1   +    -0.4804   -8.8119 -0.000000 -0.000000  0.000000 -0.000000  0.000000 -0.000000  0.860655 -0.496899 -0.061735  0.035643
                                -0.008860  0.005115  0.009998 -0.005772  0.001624 -0.000937  0.001374 -0.001626  0.001229  0.000961
                                -0.001138  0.000860

                                   1 2px     1 2px     1 2px     1 2px     1 2px     1 2px     1 4f1+    1 4f3+    1 4f1+    1 4f3+ 
                                   1 4f1+    1 4f3+ 

   1.2   2    -2.0297  -12.7235  1.000388  0.031004 -0.022381  0.004659 -0.004382 -0.000806  0.000140  0.000543  0.000784  0.003035
                                 0.000320  0.001239

                                   1 2py     1 2py     1 2py     1 2py     1 2py     1 2py     1 4f1-    1 4f3-    1 4f1-    1 4f3- 
                                   1 4f1-    1 4f3- 

   1.3   2    -2.0381  -12.7387  1.000318  0.027067 -0.020073  0.003297 -0.004205 -0.000602 -0.000090 -0.000116 -0.005494 -0.007093
                                -0.005054 -0.006525

                                   1 2pz     1 2pz     1 2pz     1 2pz     1 2pz     1 2pz     1 4f0     1 4f2+    1 4f0     1 4f2+ 
                                   1 4f0     1 4f2+ 

   1.5   2    -2.0297  -12.7235  1.000388  0.031004 -0.022381  0.004659 -0.004382 -0.000806  0.000343  0.000443  0.001919  0.002478
                                 0.000784  0.001012

                                   1 3d1+    1 3d1+    1 3d1+    1 3d1+    1 3d1+    1 5g1+    1 5g3+    1 5g1+    1 5g3+ 

   1.6   +    -0.4804   -8.8119  0.993799 -0.071285 -0.010230  0.011544  0.001875  0.000869  0.002300  0.000608  0.001609

 HOMO      4.1    -0.480396 =     -13.0722eV
 LUMO      2.3     0.017129 =       0.4661eV
 LUMO-HOMO         0.497526 =      13.5384eV


 **********************************************************************************************************************************
 DATASETS  * FILE   NREC   LENGTH (MB)   RECORD NAMES
              1      20       23.62       500      610      700      900      950      970     1000      129      960     1100   
                                          VAR    BASINP    GEOM    SYMINP    ZMAT    AOBASIS   BASIS     P2S    ABASIS      S 
                                         1400     1410     1420     1200     1210     1080     1600     1650     1300     1700   
                                         EKIN       V       ECP      H0       H01     AOSYM     SMH    MOLCAS    ERIS     OPER   

              2       4        2.79       700     1000      520     2100   
                                         GEOM     BASIS   MCVARS     RHF  

 PROGRAMS   *        TOTAL        HF       INT
 CPU TIMES  *         1.77      0.12      1.52
 REAL TIME  *         5.19 SEC
 DISK USED  *        40.32 MB      
 **********************************************************************************************************************************
 SETTING SCF(I)         =       -70.88692814  AU                              
 SETTING _CC_NORM_MAX   =         2.00000000                                  


 PROGRAM * CCSD (Unrestricted open-shell coupled cluster)     Authors: C. Hampel, H.-J. Werner, 1991, M. Deegan, P.J. Knowles, 1992


 Convergence thresholds:  THRVAR = 1.00D-08  THRDEN = 1.00D-06

 CCSD(T)     terms to be evaluated (factor= 1.000)


 Number of closed-shell orbitals:   5 (   2   1   1   0   1   0   0   0 )
 Number of active  orbitals:        3 (   2   0   0   0   0   1   0   0 )
 Number of external orbitals:      80 (  18  11  11   9  11   8   9   3 )

 Memory could be reduced to 1.51 Mwords without degradation in triples

 Number of N-1 electron functions:              13
 Number of N-2 electron functions:              78
 Number of singly external CSFs:               195
 Number of doubly external CSFs:             52988
 Total number of CSFs:                       53183

 Molecular orbitals read from record     2100.2  Type=RHF/CANONICAL (state 1.6)

 Integral transformation finished. Total CPU:   0.04 sec, npass=  1  Memory used:   0.30 MW

 Starting RMP2 calculation

 ITER.      SQ.NORM     CORR.ENERGY   TOTAL ENERGY   ENERGY CHANGE        DEN1      VAR(S)    VAR(P)  DIIS     TIME
   1      1.09715358    -0.42682474   -71.31375289    -0.42682474    -0.00129416  0.34D-04  0.10D-02  1  1     0.04
   2      1.10005332    -0.42821788   -71.31514602    -0.00139313    -0.00002663  0.18D-05  0.30D-04  2  2     0.05
   3      1.10060617    -0.42838794   -71.31531608    -0.00017006    -0.00000027  0.67D-07  0.26D-06  3  3     0.05
   4      1.10064782    -0.42839726   -71.31532540    -0.00000932    -0.00000001  0.44D-08  0.30D-08  4  4     0.05
   5      1.10064921    -0.42839723   -71.31532538     0.00000002    -0.00000000  0.24D-09  0.25D-10  5  5     0.06

 Norm of t1 vector:      0.04266062      S-energy:    -0.00462529      T1 diagnostic:  0.00038264
 Norm of t2 vector:      0.31437125      P-energy:    -0.42377194
                                         Alpha-Beta:  -0.30081537
                                         Alpha-Alpha: -0.08151269
                                         Beta-Beta:   -0.04144389

 Spin contamination <S**2-Sz**2-Sz>     0.00729250
  Reference energy                    -70.886928144290
  RHF-RMP2 correlation energy          -0.428397233572
 !RHF-RMP2 energy                     -71.315325377862

 Starting UCCSD calculation

 ITER.      SQ.NORM     CORR.ENERGY   TOTAL ENERGY   ENERGY CHANGE        DEN1      VAR(S)    VAR(P)  DIIS     TIME
   1      1.10771006    -0.43802563   -71.32495378    -0.43802563    -0.00900838  0.24D-02  0.32D-02  1  1     0.17
   2      1.12597775    -0.44749961   -71.33442776    -0.00947398    -0.00109979  0.37D-03  0.66D-03  2  2     0.28
   3      1.13805408    -0.45016407   -71.33709221    -0.00266446    -0.00021231  0.97D-04  0.11D-03  3  3     0.39
   4      1.14648880    -0.45165187   -71.33858002    -0.00148780    -0.00004150  0.28D-05  0.24D-04  4  4     0.48
   5      1.14959642    -0.45201276   -71.33894090    -0.00036088    -0.00001934  0.51D-05  0.11D-04  5  5     0.58
   6      1.15046536    -0.45206339   -71.33899153    -0.00005063    -0.00000701  0.22D-05  0.35D-05  6  6     0.67
   7      1.15075283    -0.45208136   -71.33900950    -0.00001797    -0.00000161  0.11D-05  0.61D-06  6  1     0.76
   8      1.15065058    -0.45205092   -71.33897907     0.00003044    -0.00000042  0.22D-06  0.19D-06  6  2     0.86
   9      1.15073466    -0.45206215   -71.33899030    -0.00001123    -0.00000016  0.15D-06  0.42D-07  6  3     0.96
  10      1.15075032    -0.45205824   -71.33898639     0.00000391    -0.00000008  0.90D-07  0.12D-07  6  4     1.06
  11      1.15078461    -0.45205834   -71.33898648    -0.00000010    -0.00000004  0.45D-07  0.66D-08  6  5     1.16
  12      1.15080673    -0.45205595   -71.33898409     0.00000239    -0.00000002  0.16D-07  0.39D-08  6  6     1.26
  13      1.15085454    -0.45205784   -71.33898598    -0.00000189    -0.00000001  0.93D-09  0.34D-08  6  1     1.37
  14      1.15086562    -0.45206006   -71.33898821    -0.00000222    -0.00000000  0.11D-08  0.56D-09  6  2     1.48
  15      1.15088684    -0.45206121   -71.33898935    -0.00000114    -0.00000000  0.43D-10  0.26D-09  6  3     1.59
  16      1.15088322    -0.45206100   -71.33898915     0.00000020    -0.00000000  0.14D-10  0.69D-10  6  4     1.71

 Norm of t1 vector:      0.11896975      S-energy:    -0.00465071      T1 diagnostic:  0.02076409
                                                                       D1 diagnostic:  0.06493534
 Norm of t2 vector:      0.36976941      P-energy:    -0.44741029
                                         Alpha-Beta:  -0.32639791
                                         Alpha-Alpha: -0.08155984
                                         Beta-Beta:   -0.03945253

 Singles amplitudes (print threshold =  0.500E-01):

         I         SYM. A    A   T(IA) [Alpha-Alpha]

         2         1         3     -0.05461846
         2         1         8      0.07699475

 Doubles amplitudes (print threshold =  0.500E-01):

         I         J         SYM. A    SYM. B    A         B      T(IJ, AB) [Alpha-Alpha]

         8         4         4         7         2         2     -0.05453088
         8         4         7         4         2         2      0.05453088
 
         I         J         SYM. A    SYM. B    A         B      T(IJ, AB) [Alpha-Beta]

         2         2         2         2         2         2     -0.05023233
         2         2         3         3         1         1     -0.05746192
         2         2         3         3         1         2      0.05502585
         2         2         3         3         2         1      0.05639173
         2         2         3         3         2         2     -0.05456765
         2         2         5         5         2         2     -0.05023233

 Spin contamination <S**2-Sz**2-Sz>     0.00540960

 Memory could be reduced to 1.69 Mwords without degradation in triples
 

  Correlated core orbitals:             1.1       1.2       1.3       1.5
  Orbital energies:                    -3.3457   -2.1858   -2.1383   -2.1858
 
  UCCSD core-core energy               -0.210483186201
  UCCSD core-valence energy            -0.169158640018
  UCCSD valence correlation energy     -0.072419177283
 

 RESULTS
 =======

  Reference energy                    -70.886928144290
  UCCSD singles energy                 -0.004650714793
  UCCSD pair energy                    -0.447410288709
  UCCSD correlation energy             -0.452061003502
  Triples (T) contribution             -0.015977665141
  Total correlation energy             -0.468038668643
 
  RHF-UCCSD energy                    -71.338989147792
  RHF-UCCSD[T] energy                 -71.355279237861
  RHF-UCCSD-T energy                  -71.354907835285
 !RHF-UCCSD(T) energy                 -71.354966812932

 Program statistics:

 Available memory in ccsd:               511999308
 Min. memory needed in ccsd:                183647
 Max. memory used in ccsd:                  245073
 Max. memory used in cckext:                229653 (16 integral passes)
 Max. memory used in cckint:                304184 ( 1 integral passes)



 **********************************************************************************************************************************
 DATASETS  * FILE   NREC   LENGTH (MB)   RECORD NAMES
              1      20       23.62       500      610      700      900      950      970     1000      129      960     1100   
                                          VAR    BASINP    GEOM    SYMINP    ZMAT    AOBASIS   BASIS     P2S    ABASIS      S 
                                         1400     1410     1420     1200     1210     1080     1600     1650     1300     1700   
                                         EKIN       V       ECP      H0       H01     AOSYM     SMH    MOLCAS    ERIS     OPER   

              2       4        2.79       700     1000      520     2100   
                                         GEOM     BASIS   MCVARS     RHF  

 PROGRAMS   *        TOTAL  UCCSD(T)        HF       INT
 CPU TIMES  *         4.55      2.77      0.12      1.52
 REAL TIME  *        11.65 SEC
 DISK USED  *        51.46 MB      
 **********************************************************************************************************************************
 SETTING POSTHF(I)      =       -71.35496681  AU                              
                                                                                                                                                                                                                                                                

        SCF            POSTHF        EKIN           POT
    -70.88692814   -71.35496681   34.53927540   -12.76863916
                                                  

 UCCSD(T)/USERDEF energy=    -71.354966812932

        UCCSD(T)        HF-SCF  
    -71.35496681    -70.88692814
 **********************************************************************************************************************************
 Variable memory released
