
 Primary working directories    : /global/cscratch1/sd/aannabe
 Secondary working directories  : /global/cscratch1/sd/aannabe
 Wavefunction directory         : /global/homes/a/aannabe/wfu/
 Main file repository           : /global/cscratch1/sd/aannabe/

 SHA1      : 2873118e99aab1bc19f5b6fc1784693c06d15c95
 NAME      : 2015.1.8
 ARCHNAME  : linux/x86_64
 FC        : /opt/cray/pe/craype/2.5.5/bin/ftn
 BLASLIB   : -Wl,-_start-group /opt/intel/compilers_and_libraries_2016.3.210/linux/mkl/lib/intel64/libmkl_intel_ilp64.a /opt/intel/compilers_and_libraries_2016.3.210/linux/mkl/lib/intel64/libmkl_intel_thread.a /opt/intel/compilers_and_libraries_2016.3.210/linux/mkl/lib/intel64/libmkl_core.a -Wl,-_end-group
 id        : lbl

 Nodes     nprocs
 nid02290     1

 Using customized tuning parameters: mindgm=8; mindgv=16; mindgc=4; mindgr=1; noblas=0; minvec=7
 default implementation of scratch files=df  

 ***,Co
 memory,512,m
 gthresh,twoint=1.e-12
 
 gprint,basis,orbitals
 gexpec,ekin,pot
 
 angstrom
 geometry={
 1                                                                               ! Number of atoms
 Co 0.0 0.0 0.0
 }
 
 basis={
 Including file /global/homes/a/aannabe/docs/totals_stu_d2h/pps/Co.pp
 Including file /global/homes/a/aannabe/docs/totals_stu_d2h/basis/unc-aug-cc-pwCVnZ/Co_tz.basis
 }
 
 {hf
 wf,17,1,3
 occ,4,1,1,1,1,1,1,0
 open,1.4,1.6,1.7
 sym,1,1,1,3,2
 }
 scf(i)=energy
 
 _CC_NORM_MAX=2.0
 {ci
 maxit,100
 core
 }
 posthf(i)=energy
 
 table,scf,posthf,ekin,pot
 save,3.csv,new
 
 

 Variables initialized (889), CPU time= 0.01 sec
 Commands  initialized (702), CPU time= 0.00 sec, 572 directives.
 Default parameters read. Elapsed time= 0.11 sec

 Checking input...
 Passed
1


                                         ***  PROGRAM SYSTEM MOLPRO  ***
                                       Copyright, TTI GmbH Stuttgart, 2015
                                    Version 2015.1 linked Sep  7 2016 23:09:38


 **********************************************************************************************************************************
 LABEL *   Co                                                                            
  64 bit serial version                                                                  DATE: 04-Oct-18          TIME: 11:27:35  
 **********************************************************************************************************************************

 SHA1:             2873118e99aab1bc19f5b6fc1784693c06d15c95
 **********************************************************************************************************************************

 THRESHOLDS:

 ZERO    =  1.00D-12  ONEINT  =  1.00D-12  TWOINT  =  1.00D-12  PREFAC  =  1.00D-14  LOCALI  =  1.00D-09  EORDER  =  1.00D-04
 ENERGY  =  0.00D+00  ETEST   =  0.00D+00  EDENS   =  0.00D+00  THRDEDEF=  1.00D-06  GRADIENT=  1.00D-02  STEP    =  1.00D-03
 ORBITAL =  1.00D-05  CIVEC   =  1.00D-05  COEFF   =  1.00D-04  PRINTCI =  5.00D-02  PUNCHCI =  9.90D+01  OPTGRAD =  3.00D-04
 OPTENERG=  1.00D-06  OPTSTEP =  3.00D-04  THRGRAD =  1.00D-10  COMPRESS=  1.00D-11  VARMIN  =  1.00D-07  VARMAX  =  1.00D-03
 THRDOUB =  0.00D+00  THRDIV  =  1.00D-05  THRRED  =  1.00D-07  THRPSP  =  1.00D+00  THRDC   =  1.00D-10  THRCS   =  1.00D-10
 THRNRM  =  1.00D-08  THREQ   =  0.00D+00  THRDE   =  1.00D+00  THRREF  =  1.00D-05  SPARFAC =  1.00D+00  THRDLP  =  1.00D-07
 THRDIA  =  1.00D-10  THRDLS  =  1.00D-07  THRGPS  =  0.00D+00  THRKEX  =  0.00D+00  THRDIS  =  2.00D-01  THRVAR  =  1.00D-10
 THRLOC  =  1.00D-06  THRGAP  =  1.00D-06  THRLOCT = -1.00D+00  THRGAPT = -1.00D+00  THRORB  =  1.00D-06  THRMLTP =  0.00D+00
 THRCPQCI=  1.00D-10  KEXTA   =  0.00D+00  THRCOARS=  0.00D+00  SYMTOL  =  1.00D-06  GRADTOL =  1.00D-06  THROVL  =  1.00D-08
 THRORTH =  1.00D-08  GRID    =  1.00D-06  GRIDMAX =  1.00D-03  DTMAX   =  0.00D+00  THROCCDE=  1.00D-01  THROCCDE=  1.00D-01



 ZUNIT=ANG
 

Geometry recognized as XYZ


 Variable memory set to  512000000 words,  buffer space   230000 words

 SETTING BASIS          =    USERDEF


 Recomputing integrals since basis changed


 Using spherical harmonics



 PROGRAM * SEWARD (Integral evaluation for generally contracted gaussian basis sets)     Author: Roland Lindh, 1990

 Geometry written to block  1 of record 700

 Orientation using atomic masses  
 Molecule type: Atom
 Symmetry elements: X,Y,Z
 Rotational constants:       0.0000000      0.0000000      0.0000000 GHz  (calculated with average atomic masses)

 Point group  D2h 



 ATOMIC COORDINATES

 NR  ATOM    CHARGE       X              Y              Z

   1  CO     17.00    0.000000000    0.000000000    0.000000000


          CO  CORE POTENTIAL

          f POTENTIAL

 POWERS             2
 EXPONENTIALS   1.000000    
 COEFFICIENTS   0.000000    

          s - f POTENTIAL

 POWERS             2              2
 EXPONENTIALS   23.66000       10.61000    
 COEFFICIENTS   283.9606       47.15685    

          p - f POTENTIAL

 POWERS             2              2
 EXPONENTIALS   25.04000       10.44000    
 COEFFICIENTS   182.2122       35.23335    

          d - f POTENTIAL

 POWERS             2              2
 EXPONENTIALS   29.54000       10.18000    
 COEFFICIENTS  -26.47533      -1.825787    


 BASIS DATA

   Nr Sym  Nuc  Type         Exponents   Contraction coefficients

    1.1 Ag    1  1s     4675675.000000     1.000000
    2.1 Ag    1  1s      700161.500000     1.000000
    3.1 Ag    1  1s      159337.300000     1.000000
    4.1 Ag    1  1s       45130.460000     1.000000
    5.1 Ag    1  1s       14722.380000     1.000000
    6.1 Ag    1  1s        5314.222000     1.000000
    7.1 Ag    1  1s        2072.018000     1.000000
    8.1 Ag    1  1s         858.618800     1.000000
    9.1 Ag    1  1s         373.549700     1.000000
   10.1 Ag    1  1s         168.922900     1.000000
   11.1 Ag    1  1s          78.296390     1.000000
   12.1 Ag    1  1s          35.521230     1.000000
   13.1 Ag    1  1s          17.041440     1.000000
   14.1 Ag    1  1s           8.173000     1.000000
   15.1 Ag    1  1s           3.610318     1.000000
   16.1 Ag    1  1s           1.697047     1.000000
   17.1 Ag    1  1s           0.743532     1.000000
   18.1 Ag    1  1s           0.158344     1.000000
   19.1 Ag    1  1s           0.075036     1.000000
   20.1 Ag    1  1s           0.033091     1.000000
   21.1 Ag    1  1s           5.225500     1.000000
   22.1 Ag    1  1s           1.363800     1.000000
   23.1 Ag    1  1s           0.014590     1.000000
   24.1 Ag    1  3d0        128.392000     1.000000
   25.1 Ag    1  3d2+       128.392000     1.000000
   26.1 Ag    1  3d0         37.893800     1.000000
   27.1 Ag    1  3d2+        37.893800     1.000000
   28.1 Ag    1  3d0         13.879800     1.000000
   29.1 Ag    1  3d2+        13.879800     1.000000
   30.1 Ag    1  3d0          5.625440     1.000000
   31.1 Ag    1  3d2+         5.625440     1.000000
   32.1 Ag    1  3d0          2.335390     1.000000
   33.1 Ag    1  3d2+         2.335390     1.000000
   34.1 Ag    1  3d0          0.935192     1.000000
   35.1 Ag    1  3d2+         0.935192     1.000000
   36.1 Ag    1  3d0          0.346953     1.000000
   37.1 Ag    1  3d2+         0.346953     1.000000
   38.1 Ag    1  3d0          0.111723     1.000000
   39.1 Ag    1  3d2+         0.111723     1.000000
   40.1 Ag    1  3d0          5.138400     1.000000
   41.1 Ag    1  3d2+         5.138400     1.000000
   42.1 Ag    1  3d0          2.405600     1.000000
   43.1 Ag    1  3d2+         2.405600     1.000000
   44.1 Ag    1  3d0          0.035980     1.000000
   45.1 Ag    1  3d2+         0.035980     1.000000
   46.1 Ag    1  5g0          6.324800     1.000000
   47.1 Ag    1  5g4+         6.324800     1.000000
   48.1 Ag    1  5g2+         6.324800     1.000000
   49.1 Ag    1  5g0          2.422900     1.000000
   50.1 Ag    1  5g4+         2.422900     1.000000
   51.1 Ag    1  5g2+         2.422900     1.000000
   52.1 Ag    1  5g0          0.928160     1.000000
   53.1 Ag    1  5g4+         0.928160     1.000000
   54.1 Ag    1  5g2+         0.928160     1.000000
    1.2 B3u   1  2px      19267.780000     1.000000
    2.2 B3u   1  2px       4560.986000     1.000000
    3.2 B3u   1  2px       1481.436000     1.000000
    4.2 B3u   1  2px        566.867100     1.000000
    5.2 B3u   1  2px        240.491000     1.000000
    6.2 B3u   1  2px        109.610500     1.000000
    7.2 B3u   1  2px         52.594910     1.000000
    8.2 B3u   1  2px         26.083610     1.000000
    9.2 B3u   1  2px         13.261430     1.000000
   10.2 B3u   1  2px          6.799778     1.000000
   11.2 B3u   1  2px          3.393414     1.000000
   12.2 B3u   1  2px          1.648766     1.000000
   13.2 B3u   1  2px          0.776282     1.000000
   14.2 B3u   1  2px          0.297209     1.000000
   15.2 B3u   1  2px          0.113352     1.000000
   16.2 B3u   1  2px          0.041510     1.000000
   17.2 B3u   1  2px          7.741100     1.000000
   18.2 B3u   1  2px          1.767200     1.000000
   19.2 B3u   1  2px          0.015200     1.000000
   20.2 B3u   1  4f1+         6.924000     1.000000
   21.2 B3u   1  4f3+         6.924000     1.000000
   22.2 B3u   1  4f1+         2.624400     1.000000
   23.2 B3u   1  4f3+         2.624400     1.000000
   24.2 B3u   1  4f1+         0.917000     1.000000
   25.2 B3u   1  4f3+         0.917000     1.000000
   26.2 B3u   1  4f1+         0.320410     1.000000
   27.2 B3u   1  4f3+         0.320410     1.000000
    1.3 B2u   1  2py      19267.780000     1.000000
    2.3 B2u   1  2py       4560.986000     1.000000
    3.3 B2u   1  2py       1481.436000     1.000000
    4.3 B2u   1  2py        566.867100     1.000000
    5.3 B2u   1  2py        240.491000     1.000000
    6.3 B2u   1  2py        109.610500     1.000000
    7.3 B2u   1  2py         52.594910     1.000000
    8.3 B2u   1  2py         26.083610     1.000000
    9.3 B2u   1  2py         13.261430     1.000000
   10.3 B2u   1  2py          6.799778     1.000000
   11.3 B2u   1  2py          3.393414     1.000000
   12.3 B2u   1  2py          1.648766     1.000000
   13.3 B2u   1  2py          0.776282     1.000000
   14.3 B2u   1  2py          0.297209     1.000000
   15.3 B2u   1  2py          0.113352     1.000000
   16.3 B2u   1  2py          0.041510     1.000000
   17.3 B2u   1  2py          7.741100     1.000000
   18.3 B2u   1  2py          1.767200     1.000000
   19.3 B2u   1  2py          0.015200     1.000000
   20.3 B2u   1  4f1-         6.924000     1.000000
   21.3 B2u   1  4f3-         6.924000     1.000000
   22.3 B2u   1  4f1-         2.624400     1.000000
   23.3 B2u   1  4f3-         2.624400     1.000000
   24.3 B2u   1  4f1-         0.917000     1.000000
   25.3 B2u   1  4f3-         0.917000     1.000000
   26.3 B2u   1  4f1-         0.320410     1.000000
   27.3 B2u   1  4f3-         0.320410     1.000000
    1.4 B1g   1  3d2-       128.392000     1.000000
    2.4 B1g   1  3d2-        37.893800     1.000000
    3.4 B1g   1  3d2-        13.879800     1.000000
    4.4 B1g   1  3d2-         5.625440     1.000000
    5.4 B1g   1  3d2-         2.335390     1.000000
    6.4 B1g   1  3d2-         0.935192     1.000000
    7.4 B1g   1  3d2-         0.346953     1.000000
    8.4 B1g   1  3d2-         0.111723     1.000000
    9.4 B1g   1  3d2-         5.138400     1.000000
   10.4 B1g   1  3d2-         2.405600     1.000000
   11.4 B1g   1  3d2-         0.035980     1.000000
   12.4 B1g   1  5g2-         6.324800     1.000000
   13.4 B1g   1  5g4-         6.324800     1.000000
   14.4 B1g   1  5g2-         2.422900     1.000000
   15.4 B1g   1  5g4-         2.422900     1.000000
   16.4 B1g   1  5g2-         0.928160     1.000000
   17.4 B1g   1  5g4-         0.928160     1.000000
    1.5 B1u   1  2pz      19267.780000     1.000000
    2.5 B1u   1  2pz       4560.986000     1.000000
    3.5 B1u   1  2pz       1481.436000     1.000000
    4.5 B1u   1  2pz        566.867100     1.000000
    5.5 B1u   1  2pz        240.491000     1.000000
    6.5 B1u   1  2pz        109.610500     1.000000
    7.5 B1u   1  2pz         52.594910     1.000000
    8.5 B1u   1  2pz         26.083610     1.000000
    9.5 B1u   1  2pz         13.261430     1.000000
   10.5 B1u   1  2pz          6.799778     1.000000
   11.5 B1u   1  2pz          3.393414     1.000000
   12.5 B1u   1  2pz          1.648766     1.000000
   13.5 B1u   1  2pz          0.776282     1.000000
   14.5 B1u   1  2pz          0.297209     1.000000
   15.5 B1u   1  2pz          0.113352     1.000000
   16.5 B1u   1  2pz          0.041510     1.000000
   17.5 B1u   1  2pz          7.741100     1.000000
   18.5 B1u   1  2pz          1.767200     1.000000
   19.5 B1u   1  2pz          0.015200     1.000000
   20.5 B1u   1  4f0          6.924000     1.000000
   21.5 B1u   1  4f2+         6.924000     1.000000
   22.5 B1u   1  4f0          2.624400     1.000000
   23.5 B1u   1  4f2+         2.624400     1.000000
   24.5 B1u   1  4f0          0.917000     1.000000
   25.5 B1u   1  4f2+         0.917000     1.000000
   26.5 B1u   1  4f0          0.320410     1.000000
   27.5 B1u   1  4f2+         0.320410     1.000000
    1.6 B2g   1  3d1+       128.392000     1.000000
    2.6 B2g   1  3d1+        37.893800     1.000000
    3.6 B2g   1  3d1+        13.879800     1.000000
    4.6 B2g   1  3d1+         5.625440     1.000000
    5.6 B2g   1  3d1+         2.335390     1.000000
    6.6 B2g   1  3d1+         0.935192     1.000000
    7.6 B2g   1  3d1+         0.346953     1.000000
    8.6 B2g   1  3d1+         0.111723     1.000000
    9.6 B2g   1  3d1+         5.138400     1.000000
   10.6 B2g   1  3d1+         2.405600     1.000000
   11.6 B2g   1  3d1+         0.035980     1.000000
   12.6 B2g   1  5g1+         6.324800     1.000000
   13.6 B2g   1  5g3+         6.324800     1.000000
   14.6 B2g   1  5g1+         2.422900     1.000000
   15.6 B2g   1  5g3+         2.422900     1.000000
   16.6 B2g   1  5g1+         0.928160     1.000000
   17.6 B2g   1  5g3+         0.928160     1.000000
    1.7 B3g   1  3d1-       128.392000     1.000000
    2.7 B3g   1  3d1-        37.893800     1.000000
    3.7 B3g   1  3d1-        13.879800     1.000000
    4.7 B3g   1  3d1-         5.625440     1.000000
    5.7 B3g   1  3d1-         2.335390     1.000000
    6.7 B3g   1  3d1-         0.935192     1.000000
    7.7 B3g   1  3d1-         0.346953     1.000000
    8.7 B3g   1  3d1-         0.111723     1.000000
    9.7 B3g   1  3d1-         5.138400     1.000000
   10.7 B3g   1  3d1-         2.405600     1.000000
   11.7 B3g   1  3d1-         0.035980     1.000000
   12.7 B3g   1  5g1-         6.324800     1.000000
   13.7 B3g   1  5g3-         6.324800     1.000000
   14.7 B3g   1  5g1-         2.422900     1.000000
   15.7 B3g   1  5g3-         2.422900     1.000000
   16.7 B3g   1  5g1-         0.928160     1.000000
   17.7 B3g   1  5g3-         0.928160     1.000000
    1.8 Au    1  4f2-         6.924000     1.000000
    2.8 Au    1  4f2-         2.624400     1.000000
    3.8 Au    1  4f2-         0.917000     1.000000
    4.8 Au    1  4f2-         0.320410     1.000000

 NUCLEAR CHARGE:                   17
 NUMBER OF PRIMITIVE AOS:         231
 NUMBER OF SYMMETRY AOS:          190
 NUMBER OF CONTRACTIONS:          190   (  54Ag  +  27B3u +  27B2u +  17B1g +  27B1u +  17B2g +  17B3g +   4Au  )
 NUMBER OF CORE ORBITALS:           4   (   1Ag  +   1B3u +   1B2u +   0B1g +   1B1u +   0B2g +   0B3g +   0Au  )
 NUMBER OF VALENCE ORBITALS:        6   (   3Ag  +   0B3u +   0B2u +   1B1g +   0B1u +   1B2g +   1B3g +   0Au  )


 NUCLEAR REPULSION ENERGY    0.00000000

 EXTRA SYMMETRY OF AOS IN SYMMETRY 1:   1 1 1 1 1 1 1 1 1 1   1 1 1 1 1 1 1 1 1 1   1 1 1 2 3 2 3 2 3 2   3 2 3 2 3 2 3 2 3 2
                                        3 2 3 2 3 4 5 6 4 5   6 4 5 6
 EXTRA SYMMETRY OF AOS IN SYMMETRY 2:   1 1 1 1 1 1 1 1 1 1   1 1 1 1 1 1 1 1 1 2   3 2 3 2 3 2 3
 EXTRA SYMMETRY OF AOS IN SYMMETRY 3:   1 1 1 1 1 1 1 1 1 1   1 1 1 1 1 1 1 1 1 2   3 2 3 2 3 2 3
 EXTRA SYMMETRY OF AOS IN SYMMETRY 4:   1 1 1 1 1 1 1 1 1 1   1 2 3 2 3 2 3
 EXTRA SYMMETRY OF AOS IN SYMMETRY 5:   1 1 1 1 1 1 1 1 1 1   1 1 1 1 1 1 1 1 1 2   3 2 3 2 3 2 3
 EXTRA SYMMETRY OF AOS IN SYMMETRY 6:   1 1 1 1 1 1 1 1 1 1   1 2 3 2 3 2 3
 EXTRA SYMMETRY OF AOS IN SYMMETRY 7:   1 1 1 1 1 1 1 1 1 1   1 2 3 2 3 2 3

 Eigenvalues of metric

         1 0.392E-05 0.392E-05 0.608E-05 0.644E-04 0.207E-03 0.207E-03 0.585E-03 0.167E-02
         2 0.221E-05 0.156E-04 0.114E-02 0.470E-02 0.118E-01 0.256E-01 0.445E-01 0.826E-01
         3 0.221E-05 0.156E-04 0.114E-02 0.470E-02 0.118E-01 0.256E-01 0.445E-01 0.826E-01
         4 0.392E-05 0.207E-03 0.539E-01 0.120E+00 0.256E+00 0.284E+00 0.284E+00 0.449E+00
         5 0.221E-05 0.156E-04 0.114E-02 0.470E-02 0.118E-01 0.256E-01 0.445E-01 0.826E-01
         6 0.392E-05 0.207E-03 0.539E-01 0.120E+00 0.256E+00 0.284E+00 0.284E+00 0.449E+00
         7 0.392E-05 0.207E-03 0.539E-01 0.120E+00 0.256E+00 0.284E+00 0.284E+00 0.449E+00
         8 0.192E+00 0.533E+00 0.124E+01 0.204E+01


 Contracted 2-electron integrals neglected if value below      1.0D-12
 AO integral compression algorithm  1   Integral accuracy      1.0D-12

     147.063 MB (compressed) written to integral file ( 47.0%)


 NUMBER OF SORTED TWO-ELECTRON INTEGRALS:   21725389.     BUFFER LENGTH:  32768
 NUMBER OF SEGMENTS:   2  SEGMENT LENGTH:   15999094      RECORD LENGTH: 524288

 Memory used in sort:      16.56 MW

 SORT1 READ    39142000. AND WROTE    14663002. INTEGRALS IN     43 RECORDS. CPU TIME:     0.70 SEC, REAL TIME:     0.99 SEC
 SORT2 READ    14663002. AND WROTE    21725389. INTEGRALS IN    561 RECORDS. CPU TIME:     0.44 SEC, REAL TIME:     0.80 SEC

 FILE SIZES:   FILE 1:   167.1 MBYTE,  FILE 4:   180.4 MBYTE,   TOTAL:    347.4 MBYTE

 OPERATOR DM      FOR CENTER  0  COORDINATES:    0.000000    0.000000    0.000000
 OPERATOR EKIN    FOR CENTER  0  COORDINATES:    0.000000    0.000000    0.000000
 OPERATOR POT     FOR CENTER  0  COORDINATES:    0.000000    0.000000    0.000000


 **********************************************************************************************************************************
 DATASETS  * FILE   NREC   LENGTH (MB)   RECORD NAMES
              1      20       94.31       500      610      700      900      950      970     1000      129      960     1100   
                                          VAR    BASINP    GEOM    SYMINP    ZMAT    AOBASIS   BASIS     P2S    ABASIS      S 
                                         1400     1410     1420     1200     1210     1080     1600     1650     1300     1700   
                                         EKIN       V       ECP      H0       H01     AOSYM     SMH    MOLCAS    ERIS     OPER   

 PROGRAMS   *        TOTAL       INT
 CPU TIMES  *         9.68      9.61
 REAL TIME  *        17.53 SEC
 DISK USED  *       347.76 MB      
 **********************************************************************************************************************************


 PROGRAM * RHF-SCF (OPEN SHELL)       Authors: W. Meyer, H.-J. Werner


 NUMBER OF ELECTRONS:      10+    7-    SPACE SYMMETRY=1    SPIN SYMMETRY: Quartet 
 CONVERGENCE THRESHOLDS:    1.00E-05 (Density)    1.00E-07 (Energy)
 MAX. NUMBER OF ITERATIONS:       60
 INTERPOLATION TYPE:            DIIS
 INTERPOLATION STEPS:              2 (START)      1 (STEP)
 LEVEL SHIFTS:                 -0.60 (CLOSED) -0.30 (OPEN) 


 Singly occupied orbitals:      1.4       1.6       1.7
 
 Extra symmetries of mos in symmetry 1:   1   1   3   2

   Atom=CO basis=ECP10MDF_GUESS    lmin=0  lmax=2

 Orbital guess generated from atomic densities. Full valence occupancy:    4   1   1   1   1   1   1   0


 Molecular orbital dump at record        2100.2

 ITERATION    DDIFF          GRAD             ENERGY        2-EL.EN.            DIPOLE MOMENTS         DIIS   ORB.
    1      0.000D+00      0.000D+00      -144.89089513    219.315786    0.00000    0.00000    0.00000    0    start
    2      0.000D+00      0.164D-01      -144.93147046    226.175964    0.00000    0.00000    0.00000    1    diag,B
    3      0.860D-02      0.118D-01      -144.94220441    224.439800    0.00000    0.00000    0.00000    2    diag,B
    4      0.254D-02      0.220D-02      -144.94313398    224.351523    0.00000    0.00000    0.00000    3    diag,B
    5      0.216D-02      0.397D-03      -144.94323215    224.342116    0.00000    0.00000    0.00000    4    diag,B
    6      0.726D-03      0.127D-03      -144.94325073    224.311624    0.00000    0.00000    0.00000    5    diag,B
    7      0.238D-03      0.489D-04      -144.94325490    224.295192    0.00000    0.00000    0.00000    6    fixocc
    8      0.200D-03      0.192D-04      -144.94325567    224.287773    0.00000    0.00000    0.00000    7    diag,B
    9      0.142D-03      0.651D-05      -144.94325577    224.285927    0.00000    0.00000    0.00000    8    diag,B
   10      0.547D-04      0.269D-05      -144.94325578    224.285545    0.00000    0.00000    0.00000    9    orth
   11      0.121D-04      0.104D-05      -144.94325579    224.285374    0.00000    0.00000    0.00000    9    diag,B
   12      0.104D-04      0.365D-06      -144.94325579    224.285342    0.00000    0.00000    0.00000    9    diag,B
   13      0.513D-05      0.795D-07      -144.94325579    224.285351    0.00000    0.00000    0.00000    0    orth

 Final alpha occupancy:   4   1   1   1   1   1   1   0
 Final beta  occupancy:   4   1   1   0   1   0   0   0

 !RHF STATE 1.1 Energy               -144.943255786137
 Nuclear energy                         0.00000000
 One-electron energy                 -257.08593143
 Two-electron energy                  112.14267565
 Virial quotient                       -1.62198542
 !RHF STATE 1.1 Dipole moment           0.00000000     0.00000000     0.00000000
 Dipole moment /Debye                   0.00000000     0.00000000     0.00000000
 

 !RHF expec          <1.1|EKIN|1.1>    89.361626731038
 
 !RHF expec           <1.1|POT|1.1>   -21.247428677092

 ELECTRON ORBITALS
 =================


   Orb  Occ    Energy  Couls-En    Coefficients

                                   1 1s      1 1s      1 1s      1 1s      1 1s      1 1s      1 1s      1 1s      1 1s      1 1s   
                                   1 1s      1 1s      1 1s      1 1s      1 1s      1 1s      1 1s      1 1s      1 1s      1 1s   
                                   1 1s      1 1s      1 1s      1 3d0     1 3d2+    1 3d0     1 3d2+    1 3d0     1 3d2+    1 3d0  
                                   1 3d2+    1 3d0     1 3d2+    1 3d0     1 3d2+    1 3d0     1 3d2+    1 3d0     1 3d2+    1 3d0  
                                   1 3d2+    1 3d0     1 3d2+    1 3d0     1 3d2+    1 5g0     1 5g4+    1 5g2+    1 5g0     1 5g4+ 
                                   1 5g2+    1 5g0     1 5g4+    1 5g2+ 

   1.1   2    -4.7049  -24.1067  0.000000  0.000000  0.000000  0.000004 -0.000004  0.000064 -0.000085  0.000652 -0.001134  0.005054
                                -0.013788  0.054286 -0.007246 -0.534699  0.041635  0.849241  0.374129  0.011381 -0.005504  0.002157
                                 0.176146 -0.089619 -0.000556 -0.000000  0.000000  0.000000 -0.000000 -0.000000  0.000000  0.000000
                                -0.000000  0.000000  0.000000 -0.000000  0.000000  0.000000 -0.000000 -0.000000  0.000000 -0.000000
                                 0.000000 -0.000000 -0.000000  0.000000 -0.000000  0.000242  0.000205  0.000000  0.000431  0.000365
                                 0.000000  0.000694  0.000587 -0.000000

   2.1   2    -0.2725   -6.4912 -0.000000 -0.000000 -0.000000 -0.000001  0.000001 -0.000015  0.000019 -0.000156  0.000265 -0.001206
                                 0.003289 -0.013321  0.003678  0.132572 -0.018250 -0.238979 -0.222396  0.347204  0.553964  0.255093
                                -0.044292 -0.004227 -0.001463  0.000000  0.000000  0.000000  0.000000  0.000000  0.000000  0.000000
                                 0.000000 -0.000000  0.000000  0.000000  0.000000  0.000000  0.000000  0.000000  0.000000 -0.000000
                                 0.000000  0.000000 -0.000000 -0.000000 -0.000000  0.000014  0.000012 -0.000000  0.000182  0.000154
                                -0.000000 -0.000157 -0.000133 -0.000000

   3.1   2    -0.6249  -14.8956  0.000000 -0.000000  0.000000 -0.000000  0.000000 -0.000000  0.000000 -0.000000  0.000000 -0.000000
                                 0.000000 -0.000000  0.000000  0.000000  0.000000 -0.000000 -0.000000  0.000000 -0.000000  0.000000
                                -0.000000  0.000000 -0.000000 -0.001186 -0.001722 -0.014508 -0.021063 -0.060587 -0.087963 -0.125548
                                -0.182275 -0.238850 -0.346770 -0.205694 -0.298633 -0.125365 -0.182009 -0.024559 -0.035656 -0.016066
                                -0.023325  0.034506  0.050097  0.001285  0.001865 -0.000058  0.000069  0.000131 -0.000092  0.000109
                                 0.000207 -0.000246  0.000291  0.000554

   4.1   2    -0.6249  -14.8956  0.000000  0.000000 -0.000000  0.000000 -0.000000  0.000000 -0.000000  0.000000 -0.000000  0.000000
                                -0.000000  0.000000 -0.000000  0.000000  0.000000 -0.000000 -0.000000  0.000000 -0.000000  0.000000
                                -0.000000  0.000000 -0.000000  0.001722 -0.001186  0.021063 -0.014508  0.087963 -0.060587  0.182275
                                -0.125548  0.346770 -0.238850  0.298633 -0.205694  0.182009 -0.125365  0.035656 -0.024559  0.023325
                                -0.016066 -0.050097  0.034506 -0.001865  0.001285  0.000084 -0.000100  0.000090  0.000133 -0.000158
                                 0.000142  0.000358 -0.000423  0.000382

                                   1 2px     1 2px     1 2px     1 2px     1 2px     1 2px     1 2px     1 2px     1 2px     1 2px  
                                   1 2px     1 2px     1 2px     1 2px     1 2px     1 2px     1 2px     1 2px     1 2px     1 4f1+ 
                                   1 4f3+    1 4f1+    1 4f3+    1 4f1+    1 4f3+    1 4f1+    1 4f3+ 

   1.2   2    -3.0293  -20.5939  0.000001 -0.000001  0.000027 -0.000021  0.000448 -0.000643  0.005806 -0.006206 -0.092714  0.027151
                                 0.344402  0.425895  0.273877  0.038686 -0.002677  0.001580  0.011595  0.031320 -0.000466 -0.000899
                                 0.001160 -0.002020  0.002608 -0.002437  0.003147 -0.000559  0.000722

                                   1 2py     1 2py     1 2py     1 2py     1 2py     1 2py     1 2py     1 2py     1 2py     1 2py  
                                   1 2py     1 2py     1 2py     1 2py     1 2py     1 2py     1 2py     1 2py     1 2py     1 4f1- 
                                   1 4f3-    1 4f1-    1 4f3-    1 4f1-    1 4f3-    1 4f1-    1 4f3- 

   1.3   2    -3.0293  -20.5939  0.000001 -0.000001  0.000027 -0.000021  0.000448 -0.000643  0.005806 -0.006206 -0.092714  0.027151
                                 0.344402  0.425895  0.273877  0.038686 -0.002677  0.001580  0.011595  0.031320 -0.000466 -0.000899
                                -0.001160 -0.002020 -0.002608 -0.002437 -0.003147 -0.000559 -0.000722

                                   1 3d2-    1 3d2-    1 3d2-    1 3d2-    1 3d2-    1 3d2-    1 3d2-    1 3d2-    1 3d2-    1 3d2- 
                                   1 3d2-    1 5g2-    1 5g4-    1 5g2-    1 5g4-    1 5g2-    1 5g4- 

   1.4   +    -0.7235  -15.1815  0.002130  0.026036  0.108731  0.224648  0.439531  0.364690  0.200851  0.029821  0.030642 -0.070065
                                -0.001541  0.000319 -0.000000  0.000765  0.000000  0.000656  0.000000

                                   1 2pz     1 2pz     1 2pz     1 2pz     1 2pz     1 2pz     1 2pz     1 2pz     1 2pz     1 2pz  
                                   1 2pz     1 2pz     1 2pz     1 2pz     1 2pz     1 2pz     1 2pz     1 2pz     1 2pz     1 4f0  
                                   1 4f2+    1 4f0     1 4f2+    1 4f0     1 4f2+    1 4f0     1 4f2+ 

   1.5   2    -3.0293  -20.5939  0.000001 -0.000001  0.000027 -0.000021  0.000448 -0.000643  0.005806 -0.006206 -0.092714  0.027151
                                 0.344402  0.425895  0.273877  0.038686 -0.002677  0.001580  0.011595  0.031320 -0.000466  0.001467
                                -0.000000  0.003299  0.000000  0.003980  0.000000  0.000913 -0.000000

                                   1 3d1+    1 3d1+    1 3d1+    1 3d1+    1 3d1+    1 3d1+    1 3d1+    1 3d1+    1 3d1+    1 3d1+ 
                                   1 3d1+    1 5g1+    1 5g3+    1 5g1+    1 5g3+    1 5g1+    1 5g3+ 

   1.6   +    -0.7235  -15.1815  0.002130  0.026036  0.108731  0.224648  0.439531  0.364690  0.200851  0.029821  0.030642 -0.070065
                                -0.001541 -0.000113 -0.000298 -0.000270 -0.000716 -0.000232 -0.000613

                                   1 3d1-    1 3d1-    1 3d1-    1 3d1-    1 3d1-    1 3d1-    1 3d1-    1 3d1-    1 3d1-    1 3d1- 
                                   1 3d1-    1 5g1-    1 5g3-    1 5g1-    1 5g3-    1 5g1-    1 5g3- 

   1.7   +    -0.7235  -15.1815  0.002130  0.026036  0.108731  0.224648  0.439531  0.364690  0.200851  0.029821  0.030642 -0.070065
                                -0.001541 -0.000113  0.000298 -0.000270  0.000716 -0.000232  0.000613

 HOMO      4.1    -0.624863 =     -17.0034eV
 LUMO      2.2     0.022876 =       0.6225eV
 LUMO-HOMO         0.647739 =      17.6259eV


 **********************************************************************************************************************************
 DATASETS  * FILE   NREC   LENGTH (MB)   RECORD NAMES
              1      20       94.31       500      610      700      900      950      970     1000      129      960     1100   
                                          VAR    BASINP    GEOM    SYMINP    ZMAT    AOBASIS   BASIS     P2S    ABASIS      S 
                                         1400     1410     1420     1200     1210     1080     1600     1650     1300     1700   
                                         EKIN       V       ECP      H0       H01     AOSYM     SMH    MOLCAS    ERIS     OPER   

              2       4        2.94       700     1000      520     2100   
                                         GEOM     BASIS   MCVARS     RHF  

 PROGRAMS   *        TOTAL        HF       INT
 CPU TIMES  *        10.75      1.07      9.61
 REAL TIME  *        18.86 SEC
 DISK USED  *       347.76 MB      
 **********************************************************************************************************************************
 SETTING SCF(I)         =      -144.94325579  AU                              
 SETTING _CC_NORM_MAX   =         2.00000000                                  


 PROGRAM * CI (Multireference internally contracted CI)     Authors: H.-J. Werner, P.J. Knowles, 1987


 Convergence thresholds:  THRVAR = 1.00D-08  THRDEN = 1.00D-06

 Number of optimized states:  1  Roots:   1
 Number of reference states:  1  Roots:   1

 Reference symmetry:                   1   Quartet 
 Number of electrons:                 17
 Maximum number of shells:             3
 Maximum number of spin couplings:    14

 Reference space:        1 conf        1 CSFs
 N elec internal:       85 conf       85 CSFs
 N-1 el internal:      136 conf      346 CSFs
 N-2 el internal:       52 conf      409 CSFs

 Number of electrons in valence space:                     17
 Maximum number of open shell orbitals in reference space:  3
 Maximum number of open shell orbitals in internal spaces:  7


 Number of closed-shell orbitals:   7 (   4   1   1   0   1   0   0   0 )
 Number of active  orbitals:        3 (   0   0   0   1   0   1   1   0 )
 Number of external orbitals:     180 (  50  26  26  16  26  16  16   4 )

 Molecular orbitals read from record     2100.2  Type=RHF/CANONICAL (state 1.1)

 Integral transformation finished. Total CPU:   0.20 sec, npass=  1  Memory used:   0.36 MW

 Number of p-space configurations:   1

 Reference wavefunction optimized for reference space (refopt=1)

 State     Reference Energy 
   1        -144.94325579

 Number of blocks in overlap matrix:    94   Smallest eigenvalue:  0.10D+01
 Number of N-2 electron functions:      94
 Number of N-1 electron functions:     346

 Number of internal configurations:                    4
 Number of singly external configurations:          7040
 Number of doubly external configurations:        199426
 Total number of contracted configurations:       206470
 Total number of uncontracted configurations:     909772

 Diagonal Coupling coefficients finished.               Storage:   26464 words, CPU-Time:      0.00 seconds.
 Energy denominators for pairs finished in 1 passes.    Storage:  122083 words, CPU-time:      0.01 seconds.

  ITER. STATE  ROOT     SQ.NORM     CORR.ENERGY   TOTAL ENERGY   ENERGY CHANGE       DEN1      VAR(S)    VAR(P)      TIME
    1     1     1     1.00000000     0.00000000  -144.94325579    -0.00000000    -0.78923518  0.21D-01  0.10D+00     0.24
    2     1     1     1.08239029    -0.64997588  -145.59323167    -0.64997588    -0.01757943  0.20D-02  0.22D-02     0.78
    3     1     1     1.07472645    -0.66623894  -145.60949473    -0.01626306    -0.00052120  0.51D-04  0.10D-03     1.31
    4     1     1     1.07429343    -0.66673063  -145.60998641    -0.00049168    -0.00003216  0.77D-05  0.43D-05     1.85
    5     1     1     1.07441155    -0.66676351  -145.61001929    -0.00003288    -0.00000148  0.20D-06  0.22D-06     2.41
    6     1     1     1.07447558    -0.66676504  -145.61002082    -0.00000153    -0.00000007  0.97D-08  0.92D-08     2.96
    7     1     1     1.07448164    -0.66676511  -145.61002090    -0.00000008    -0.00000000  0.35D-09  0.34D-09     3.51


 =====================================
 Analysis of CPU times by interactions
 =====================================

       I      S      P

 I   0.0%
 S   0.0%  14.8%
 P   0.0%   2.6%  15.4%

 Initialization:   6.8%
 Other:           60.4%

 Total CPU:        3.5 seconds
 =====================================



 Reference coefficients greater than 0.0500000
 =============================================
 222222/2//           0.9644280



 RESULTS FOR STATE 1.1
 =====================

 Coefficient of reference function:   C(0) = 0.96442798 (fixed)   0.96442798 (relaxed)

 Energy contributions of configuration classes

 CLASS          SQ.NORM        ECORR1        ECORR2
 +++++++++++++++++++++++++++++++++++++++++++++++++++
 Internals    0.00060208   -0.00414337   -0.00422722
 Singles      0.01479475   -0.10864569   -0.11022838
 Pairs        0.05973173   -0.55397605   -0.55230951
 Total        1.07512856   -0.66676511   -0.66676511
 +++++++++++++++++++++++++++++++++++++++++++++++++++


 Reference energy                    -144.94325579
 Nuclear energy                         0.00000000
 Kinetic energy                        89.72257069
 One electron energy                 -256.41063218
 Two electron energy                  110.80061128
 Virial quotient                       -1.62289176
 Correlation energy                    -0.66676511
 !CI(SD) STATE 1.1 Energy            -145.610020900731

 Properties without orbital relaxation:

 !CI(SD) STATE 1.1 Dipole moment        0.00000000     0.00000000     0.00000000
 Dipole moment /Debye                   0.00000000     0.00000000     0.00000000

 Cluster corrected energies          -145.66011401 (Davidson, fixed reference)
 Cluster corrected energies          -145.66011401 (Davidson, relaxed reference)

 Cluster corrected energies          -145.65535768 (Pople, fixed reference)
 Cluster corrected energies          -145.65535768 (Pople, relaxed reference)

 

 !CI(SD) expec       <1.1|EKIN|1.1>    89.722570686199
 
 !CI(SD) expec        <1.1|POT|1.1>   -21.232980045889


 **********************************************************************************************************************************
 DATASETS  * FILE   NREC   LENGTH (MB)   RECORD NAMES
              1      21       97.68       500      610      700      900      950      970     1000      129      960     1100   
                                          VAR    BASINP    GEOM    SYMINP    ZMAT    AOBASIS   BASIS     P2S    ABASIS      S 
                                         1400     1410     1420     1200     1210     1080     1600     1650     1300     1700   
                                         EKIN       V       ECP      H0       H01     AOSYM     SMH    MOLCAS    ERIS     OPER   
                                         1380   
                                         JKOP   

              2       4        2.94       700     1000      520     2100   
                                         GEOM     BASIS   MCVARS     RHF  

 PROGRAMS   *        TOTAL        CI        HF       INT
 CPU TIMES  *        14.30      3.55      1.07      9.61
 REAL TIME  *        25.41 SEC
 DISK USED  *       347.76 MB      
 **********************************************************************************************************************************
 SETTING POSTHF(I)      =      -145.61002090  AU                              
                                                                                                                                                                                                                                                                

         SCF            POSTHF       EKIN           POT
    -144.9432558   -145.6100209   89.72257069   -21.23298005
                                                  

 CI/USERDEF energy=   -145.610020900731

        CI              HF-SCF  
   -145.61002090   -144.94325579
 **********************************************************************************************************************************
 Variable memory released
