
 Primary working directories    : /global/cscratch1/sd/aannabe
 Secondary working directories  : /global/cscratch1/sd/aannabe
 Wavefunction directory         : /global/homes/a/aannabe/wfu/
 Main file repository           : /global/cscratch1/sd/aannabe/

 SHA1      : 2873118e99aab1bc19f5b6fc1784693c06d15c95
 NAME      : 2015.1.8
 ARCHNAME  : linux/x86_64
 FC        : /opt/cray/pe/craype/2.5.5/bin/ftn
 BLASLIB   : -Wl,-_start-group /opt/intel/compilers_and_libraries_2016.3.210/linux/mkl/lib/intel64/libmkl_intel_ilp64.a /opt/intel/compilers_and_libraries_2016.3.210/linux/mkl/lib/intel64/libmkl_intel_thread.a /opt/intel/compilers_and_libraries_2016.3.210/linux/mkl/lib/intel64/libmkl_core.a -Wl,-_end-group
 id        : lbl

 Nodes     nprocs
 nid00444     1

 Using customized tuning parameters: mindgm=8; mindgv=16; mindgc=4; mindgr=1; noblas=0; minvec=7
 default implementation of scratch files=df  

 ***,Ni
 memory,512,m
 gthresh,twoint=1.e-12
 
 gprint,basis,orbitals
 gexpec,ekin,pot
 
 angstrom
 geometry={
 1                                                                               ! Number of atoms
 Ni 0.0 0.0 0.0
 }
 
 basis={
 Including file /global/homes/a/aannabe/docs/accurate/ccECP_D2h/pps/Ni.pp
                                             !include,/global/homes/a/aannabe/docs/accurate/ccECP_D2h/basis/aug-cc-pVnZ/Ni_dz.basis
 Including file /global/homes/a/aannabe/docs/accurate/ccECP_D2h/basis/cc-pVnZ/Ni_dz.basis
 }
 
 {hf
 start,atden
 wf,18,4,2
 occ,4,1,1,1,1,1,1,0
 open,4.1,1.4
 sym,1,1,3,2,1
 orbital,4202.2
 
 }
 scf(i)=energy
 
 _CC_NORM_MAX=2.0
 {uccsd(t)
 maxit,100
 core
 }
 posthf(i)=energy
 
 table,scf,posthf,ekin,pot
 save,2.csv,new
 
 

 Variables initialized (889), CPU time= 0.01 sec
 Commands  initialized (702), CPU time= 0.02 sec, 572 directives.
 Default parameters read. Elapsed time= 0.21 sec

 Checking input...
 Passed
1


                                         ***  PROGRAM SYSTEM MOLPRO  ***
                                       Copyright, TTI GmbH Stuttgart, 2015
                                    Version 2015.1 linked Sep  7 2016 23:09:38


 **********************************************************************************************************************************
 LABEL *   Ni                                                                            
  64 bit serial version                                                                  DATE: 13-Nov-18          TIME: 22:30:18  
 **********************************************************************************************************************************

 SHA1:             2873118e99aab1bc19f5b6fc1784693c06d15c95
 **********************************************************************************************************************************

 THRESHOLDS:

 ZERO    =  1.00D-12  ONEINT  =  1.00D-12  TWOINT  =  1.00D-12  PREFAC  =  1.00D-14  LOCALI  =  1.00D-09  EORDER  =  1.00D-04
 ENERGY  =  0.00D+00  ETEST   =  0.00D+00  EDENS   =  0.00D+00  THRDEDEF=  1.00D-06  GRADIENT=  1.00D-02  STEP    =  1.00D-03
 ORBITAL =  1.00D-05  CIVEC   =  1.00D-05  COEFF   =  1.00D-04  PRINTCI =  5.00D-02  PUNCHCI =  9.90D+01  OPTGRAD =  3.00D-04
 OPTENERG=  1.00D-06  OPTSTEP =  3.00D-04  THRGRAD =  1.00D-10  COMPRESS=  1.00D-11  VARMIN  =  1.00D-07  VARMAX  =  1.00D-03
 THRDOUB =  0.00D+00  THRDIV  =  1.00D-05  THRRED  =  1.00D-07  THRPSP  =  1.00D+00  THRDC   =  1.00D-10  THRCS   =  1.00D-10
 THRNRM  =  1.00D-08  THREQ   =  0.00D+00  THRDE   =  1.00D+00  THRREF  =  1.00D-05  SPARFAC =  1.00D+00  THRDLP  =  1.00D-07
 THRDIA  =  1.00D-10  THRDLS  =  1.00D-07  THRGPS  =  0.00D+00  THRKEX  =  0.00D+00  THRDIS  =  2.00D-01  THRVAR  =  1.00D-10
 THRLOC  =  1.00D-06  THRGAP  =  1.00D-06  THRLOCT = -1.00D+00  THRGAPT = -1.00D+00  THRORB  =  1.00D-06  THRMLTP =  0.00D+00
 THRCPQCI=  1.00D-10  KEXTA   =  0.00D+00  THRCOARS=  0.00D+00  SYMTOL  =  1.00D-06  GRADTOL =  1.00D-06  THROVL  =  1.00D-08
 THRORTH =  1.00D-08  GRID    =  1.00D-06  GRIDMAX =  1.00D-03  DTMAX   =  0.00D+00  THROCCDE=  1.00D-01  THROCCDE=  1.00D-01



 ZUNIT=ANG
 

Geometry recognized as XYZ


 Variable memory set to  512000000 words,  buffer space   230000 words

 SETTING BASIS          =    USERDEF


 Recomputing integrals since basis changed


 Using spherical harmonics



 PROGRAM * SEWARD (Integral evaluation for generally contracted gaussian basis sets)     Author: Roland Lindh, 1990

 Geometry written to block  1 of record 700

 Orientation using atomic masses  
 Molecule type: Atom
 Symmetry elements: X,Y,Z
 Rotational constants:       0.0000000      0.0000000      0.0000000 GHz  (calculated with average atomic masses)

 Point group  D2h 



 ATOMIC COORDINATES

 NR  ATOM    CHARGE       X              Y              Z

   1  NI     18.00    0.000000000    0.000000000    0.000000000


          NI  CORE POTENTIAL

          d POTENTIAL

 POWERS             1              3              2              2
 EXPONENTIALS   28.26300       26.93603       27.08601       12.21300    
 COEFFICIENTS   18.00000       508.7340      -220.1000      -2.134933    

          s - d POTENTIAL

 POWERS             2              2
 EXPONENTIALS   26.43202       11.74897    
 COEFFICIENTS   321.2400       60.34701    

          p - d POTENTIAL

 POWERS             2              2
 EXPONENTIALS   29.49300       11.55698    
 COEFFICIENTS   236.5400       44.39699    


 BASIS DATA

   Nr Sym  Nuc  Type         Exponents   Contraction coefficients

    1.1 Ag    1  1s          97.161835     0.000709   -0.000140    0.000121    0.000000
    2.1 Ag                   51.187866    -0.012399    0.002756    0.003322    0.000000
    3.1 Ag                   26.996725     0.107220   -0.025482   -0.045785    0.000000
    4.1 Ag                   15.523536    -0.124556    0.032182    0.053415    0.000000
                              8.916168    -0.351023    0.086226    0.222270    0.000000
                              4.795806    -0.025758    0.001104   -0.073065    0.000000
                              2.619926     0.498948   -0.135790   -0.293998    0.000000
                              1.330111     0.568986   -0.215724   -0.668938    0.000000
                              0.668901     0.191121   -0.158367    0.297504    0.000000
                              0.230439     0.010278    0.143499    1.233748    0.000000
                              0.121518    -0.003627    0.443672    0.129317    0.000000
                              0.057951     0.001295    0.472558   -0.603407    0.000000
                              0.027201    -0.000307    0.110173   -0.533062    1.000000
    5.1 Ag    1  1s           1.099912     1.000000
    6.1 Ag    1  1s           4.266474     1.000000
    7.1 Ag    1  3d0        177.900125     0.000049
                             57.372112     0.007519
                             29.881432     0.036455
                             13.971757     0.086901
                              6.841152     0.180568
                              3.379983     0.268187
                              1.651827     0.296756
                              0.799251     0.251558
                              0.388057     0.162319
                              0.191191     0.072119
                              0.093358     0.023689
    8.1 Ag    1  3d2+       177.900125     0.000049
                             57.372112     0.007519
                             29.881432     0.036455
                             13.971757     0.086901
                              6.841152     0.180568
                              3.379983     0.268187
                              1.651827     0.296756
                              0.799251     0.251558
                              0.388057     0.162319
                              0.191191     0.072119
                              0.093358     0.023689
    9.1 Ag    1  3d0        177.900125    -0.000053
                             57.372112    -0.008850
                             29.881432    -0.041916
                             13.971757    -0.104691
                              6.841152    -0.219464
                              3.379983    -0.283712
                              1.651827    -0.122127
                              0.799251     0.190123
                              0.388057     0.376598
                              0.191191     0.295122
                              0.093358     0.178252
   10.1 Ag    1  3d2+       177.900125    -0.000053
                             57.372112    -0.008850
                             29.881432    -0.041916
                             13.971757    -0.104691
                              6.841152    -0.219464
                              3.379983    -0.283712
                              1.651827    -0.122127
                              0.799251     0.190123
                              0.388057     0.376598
                              0.191191     0.295122
                              0.093358     0.178252
   11.1 Ag    1  3d0        177.900125     0.000000
                             57.372112     0.000000
                             29.881432     0.000000
                             13.971757     0.000000
                              6.841152     0.000000
                              3.379983     0.000000
                              1.651827     0.000000
                              0.799251     0.000000
                              0.388057     0.000000
                              0.191191     0.000000
                              0.093358     1.000000
   12.1 Ag    1  3d2+       177.900125     0.000000
                             57.372112     0.000000
                             29.881432     0.000000
                             13.971757     0.000000
                              6.841152     0.000000
                              3.379983     0.000000
                              1.651827     0.000000
                              0.799251     0.000000
                              0.388057     0.000000
                              0.191191     0.000000
                              0.093358     1.000000
   13.1 Ag    1  3d0          1.406397     1.000000
   14.1 Ag    1  3d2+         1.406397     1.000000
   15.1 Ag    1  3d0          3.410393     1.000000
   16.1 Ag    1  3d2+         3.410393     1.000000
    1.2 B3u   1  2px        148.087630     0.000055    0.000027   -0.000237    0.000000
    2.2 B3u                  77.452187    -0.000548   -0.000088    0.001456    0.000000
    3.2 B3u                  40.915636     0.006979   -0.000773   -0.009745    0.000000
    4.2 B3u                  22.575667    -0.023658    0.003345    0.037799    0.000000
                             13.218268    -0.075682    0.019405    0.052521    0.000000
                              7.232093     0.027253   -0.014288   -0.035006    0.000000
                              4.054870     0.284778   -0.054527   -0.455577    0.000000
                              2.122089     0.427632   -0.116454   -0.368306    0.000000
                              1.092769     0.309937   -0.060236    0.100392    0.000000
                              0.548240     0.088535   -0.023928    1.076652    0.000000
                              0.238886     0.006427    0.347869   -0.045326    0.000000
                              0.084667     0.000708    0.522626   -0.703186    0.000000
                              0.038921     0.000186    0.276471    0.004580    1.000000
    5.2 B3u   1  2px          1.398024     1.000000
    6.2 B3u   1  2px          6.294441     1.000000
    7.2 B3u   1  4f1+         2.317543     1.000000
    8.2 B3u   1  4f3+         2.317543     1.000000
    9.2 B3u   1  4f1+         6.722827     1.000000
   10.2 B3u   1  4f3+         6.722827     1.000000
    1.3 B2u   1  2py        148.087630     0.000055    0.000027   -0.000237    0.000000
    2.3 B2u                  77.452187    -0.000548   -0.000088    0.001456    0.000000
    3.3 B2u                  40.915636     0.006979   -0.000773   -0.009745    0.000000
    4.3 B2u                  22.575667    -0.023658    0.003345    0.037799    0.000000
                             13.218268    -0.075682    0.019405    0.052521    0.000000
                              7.232093     0.027253   -0.014288   -0.035006    0.000000
                              4.054870     0.284778   -0.054527   -0.455577    0.000000
                              2.122089     0.427632   -0.116454   -0.368306    0.000000
                              1.092769     0.309937   -0.060236    0.100392    0.000000
                              0.548240     0.088535   -0.023928    1.076652    0.000000
                              0.238886     0.006427    0.347869   -0.045326    0.000000
                              0.084667     0.000708    0.522626   -0.703186    0.000000
                              0.038921     0.000186    0.276471    0.004580    1.000000
    5.3 B2u   1  2py          1.398024     1.000000
    6.3 B2u   1  2py          6.294441     1.000000
    7.3 B2u   1  4f1-         2.317543     1.000000
    8.3 B2u   1  4f3-         2.317543     1.000000
    9.3 B2u   1  4f1-         6.722827     1.000000
   10.3 B2u   1  4f3-         6.722827     1.000000
    1.4 B1g   1  3d2-       177.900125     0.000049   -0.000053    0.000000
    2.4 B1g                  57.372112     0.007519   -0.008850    0.000000
    3.4 B1g                  29.881432     0.036455   -0.041916    0.000000
                             13.971757     0.086901   -0.104691    0.000000
                              6.841152     0.180568   -0.219464    0.000000
                              3.379983     0.268187   -0.283712    0.000000
                              1.651827     0.296756   -0.122127    0.000000
                              0.799251     0.251558    0.190123    0.000000
                              0.388057     0.162319    0.376598    0.000000
                              0.191191     0.072119    0.295122    0.000000
                              0.093358     0.023689    0.178252    1.000000
    4.4 B1g   1  3d2-         1.406397     1.000000
    5.4 B1g   1  3d2-         3.410393     1.000000
    1.5 B1u   1  2pz        148.087630     0.000055    0.000027   -0.000237    0.000000
    2.5 B1u                  77.452187    -0.000548   -0.000088    0.001456    0.000000
    3.5 B1u                  40.915636     0.006979   -0.000773   -0.009745    0.000000
    4.5 B1u                  22.575667    -0.023658    0.003345    0.037799    0.000000
                             13.218268    -0.075682    0.019405    0.052521    0.000000
                              7.232093     0.027253   -0.014288   -0.035006    0.000000
                              4.054870     0.284778   -0.054527   -0.455577    0.000000
                              2.122089     0.427632   -0.116454   -0.368306    0.000000
                              1.092769     0.309937   -0.060236    0.100392    0.000000
                              0.548240     0.088535   -0.023928    1.076652    0.000000
                              0.238886     0.006427    0.347869   -0.045326    0.000000
                              0.084667     0.000708    0.522626   -0.703186    0.000000
                              0.038921     0.000186    0.276471    0.004580    1.000000
    5.5 B1u   1  2pz          1.398024     1.000000
    6.5 B1u   1  2pz          6.294441     1.000000
    7.5 B1u   1  4f0          2.317543     1.000000
    8.5 B1u   1  4f2+         2.317543     1.000000
    9.5 B1u   1  4f0          6.722827     1.000000
   10.5 B1u   1  4f2+         6.722827     1.000000
    1.6 B2g   1  3d1+       177.900125     0.000049   -0.000053    0.000000
    2.6 B2g                  57.372112     0.007519   -0.008850    0.000000
    3.6 B2g                  29.881432     0.036455   -0.041916    0.000000
                             13.971757     0.086901   -0.104691    0.000000
                              6.841152     0.180568   -0.219464    0.000000
                              3.379983     0.268187   -0.283712    0.000000
                              1.651827     0.296756   -0.122127    0.000000
                              0.799251     0.251558    0.190123    0.000000
                              0.388057     0.162319    0.376598    0.000000
                              0.191191     0.072119    0.295122    0.000000
                              0.093358     0.023689    0.178252    1.000000
    4.6 B2g   1  3d1+         1.406397     1.000000
    5.6 B2g   1  3d1+         3.410393     1.000000
    1.7 B3g   1  3d1-       177.900125     0.000049   -0.000053    0.000000
    2.7 B3g                  57.372112     0.007519   -0.008850    0.000000
    3.7 B3g                  29.881432     0.036455   -0.041916    0.000000
                             13.971757     0.086901   -0.104691    0.000000
                              6.841152     0.180568   -0.219464    0.000000
                              3.379983     0.268187   -0.283712    0.000000
                              1.651827     0.296756   -0.122127    0.000000
                              0.799251     0.251558    0.190123    0.000000
                              0.388057     0.162319    0.376598    0.000000
                              0.191191     0.072119    0.295122    0.000000
                              0.093358     0.023689    0.178252    1.000000
    4.7 B3g   1  3d1-         1.406397     1.000000
    5.7 B3g   1  3d1-         3.410393     1.000000
    1.8 Au    1  4f2-         2.317543     1.000000
    2.8 Au    1  4f2-         6.722827     1.000000

 NUCLEAR CHARGE:                   18
 NUMBER OF PRIMITIVE AOS:         158
 NUMBER OF SYMMETRY AOS:          139
 NUMBER OF CONTRACTIONS:           63   (  16Ag  +  10B3u +  10B2u +   5B1g +  10B1u +   5B2g +   5B3g +   2Au  )
 NUMBER OF CORE ORBITALS:           4   (   1Ag  +   1B3u +   1B2u +   0B1g +   1B1u +   0B2g +   0B3g +   0Au  )
 NUMBER OF VALENCE ORBITALS:        6   (   3Ag  +   0B3u +   0B2u +   1B1g +   0B1u +   1B2g +   1B3g +   0Au  )


 NUCLEAR REPULSION ENERGY    0.00000000

 EXTRA SYMMETRY OF AOS IN SYMMETRY 1:   1 1 1 1 1 1 2 3 2 3   2 3 2 3 2 3
 EXTRA SYMMETRY OF AOS IN SYMMETRY 2:   1 1 1 1 1 1 2 3 2 3
 EXTRA SYMMETRY OF AOS IN SYMMETRY 3:   1 1 1 1 1 1 2 3 2 3
 EXTRA SYMMETRY OF AOS IN SYMMETRY 5:   1 1 1 1 1 1 2 3 2 3

 Eigenvalues of metric

         1 0.111E-01 0.416E-01 0.416E-01 0.449E-01 0.102E+00 0.102E+00 0.339E+00 0.503E+00
         2 0.801E-02 0.130E+00 0.242E+00 0.457E+00 0.457E+00 0.110E+01 0.154E+01 0.154E+01
         3 0.801E-02 0.130E+00 0.242E+00 0.457E+00 0.457E+00 0.110E+01 0.154E+01 0.154E+01
         4 0.416E-01 0.102E+00 0.503E+00 0.168E+01 0.267E+01
         5 0.801E-02 0.130E+00 0.242E+00 0.457E+00 0.457E+00 0.110E+01 0.154E+01 0.154E+01
         6 0.416E-01 0.102E+00 0.503E+00 0.168E+01 0.267E+01
         7 0.416E-01 0.102E+00 0.503E+00 0.168E+01 0.267E+01
         8 0.457E+00 0.154E+01


 Contracted 2-electron integrals neglected if value below      1.0D-12
 AO integral compression algorithm  1   Integral accuracy      1.0D-12

     3.408 MB (compressed) written to integral file ( 74.7%)


 NUMBER OF SORTED TWO-ELECTRON INTEGRALS:     280021.     BUFFER LENGTH:  32768
 NUMBER OF SEGMENTS:   1  SEGMENT LENGTH:     280021      RECORD LENGTH: 524288

 Memory used in sort:       0.84 MW

 SORT1 READ      606445. AND WROTE      231448. INTEGRALS IN      1 RECORDS. CPU TIME:     0.01 SEC, REAL TIME:     0.03 SEC
 SORT2 READ      231448. AND WROTE      280021. INTEGRALS IN     13 RECORDS. CPU TIME:     0.05 SEC, REAL TIME:     0.07 SEC

 FILE SIZES:   FILE 1:    22.6 MBYTE,  FILE 4:     4.2 MBYTE,   TOTAL:     26.8 MBYTE

 OPERATOR DM      FOR CENTER  0  COORDINATES:    0.000000    0.000000    0.000000
 OPERATOR EKIN    FOR CENTER  0  COORDINATES:    0.000000    0.000000    0.000000
 OPERATOR POT     FOR CENTER  0  COORDINATES:    0.000000    0.000000    0.000000


 **********************************************************************************************************************************
 DATASETS  * FILE   NREC   LENGTH (MB)   RECORD NAMES
              1      20       20.77       500      610      700      900      950      970     1000      129      960     1100   
                                          VAR    BASINP    GEOM    SYMINP    ZMAT    AOBASIS   BASIS     P2S    ABASIS      S 
                                         1400     1410     1420     1200     1210     1080     1600     1650     1300     1700   
                                         EKIN       V       ECP      H0       H01     AOSYM     SMH    MOLCAS    ERIS     OPER   

 PROGRAMS   *        TOTAL       INT
 CPU TIMES  *         1.29      1.11
 REAL TIME  *         2.72 SEC
 DISK USED  *        27.11 MB      
 **********************************************************************************************************************************


 PROGRAM * RHF-SCF (OPEN SHELL)       Authors: W. Meyer, H.-J. Werner


 NUMBER OF ELECTRONS:      10+    8-    SPACE SYMMETRY=4    SPIN SYMMETRY: Triplet 
 CONVERGENCE THRESHOLDS:    1.00E-05 (Density)    1.00E-07 (Energy)
 MAX. NUMBER OF ITERATIONS:       60
 INTERPOLATION TYPE:            DIIS
 INTERPOLATION STEPS:              2 (START)      1 (STEP)
 LEVEL SHIFTS:                 -0.60 (CLOSED) -0.30 (OPEN) 


 Singly occupied orbitals:      4.1       1.4
 
 Extra symmetries of mos in symmetry 1:   1   3   2   1

   Atom=NI basis=ECP10MDF_GUESS    lmin=0  lmax=2

 Orbital guess generated from atomic densities. Full valence occupancy:    4   1   1   1   1   1   1   0


 Molecular orbital dump at record        4202.2

 ITERATION    DDIFF          GRAD             ENERGY        2-EL.EN.            DIPOLE MOMENTS         DIIS   ORB.
    1      0.000D+00      0.000D+00      -167.54758395    242.685015    0.00000    0.00000    0.00000    0    start
    2      0.000D+00      0.165D+00      -167.90333979    289.071451    0.00000    0.00000    0.00000    1    diag,B
    3      0.596D-01      0.156D+00      -168.40638958    272.719009    0.00000    0.00000    0.00000    2    diag,B
    4      0.303D-01      0.181D-01      -168.41728655    271.298866    0.00000    0.00000    0.00000    3    diag,B
    5      0.925D-02      0.290D-02      -168.41896335    271.534378    0.00000    0.00000    0.00000    4    diag,B
    6      0.730D-02      0.694D-03      -168.41909391    271.686515    0.00000    0.00000    0.00000    5    diag,B
    7      0.257D-02      0.129D-03      -168.41909869    271.702259    0.00000    0.00000    0.00000    6    fixocc
    8      0.341D-03      0.431D-04      -168.41909944    271.703906    0.00000    0.00000    0.00000    7    diag,B
    9      0.883D-04      0.102D-04      -168.41909947    271.704895    0.00000    0.00000    0.00000    8    diag,B
   10      0.318D-04      0.325D-05      -168.41909948    271.705068    0.00000    0.00000    0.00000    9    orth
   11      0.127D-04      0.130D-05      -168.41909948    271.705125    0.00000    0.00000    0.00000    9    diag,B
   12      0.720D-05      0.441D-06      -168.41909948    271.705103    0.00000    0.00000    0.00000    0    orth

 Final alpha occupancy:   4   1   1   1   1   1   1   0
 Final beta  occupancy:   3   1   1   0   1   1   1   0

 !RHF STATE 1.4 Energy               -168.419099477197
 Nuclear energy                         0.00000000
 One-electron energy                 -304.27165113
 Two-electron energy                  135.85255166
 Virial quotient                       -1.55180648
 !RHF STATE 1.4 Dipole moment           0.00000000     0.00000000     0.00000000
 Dipole moment /Debye                   0.00000000     0.00000000     0.00000000
 

 !RHF expec          <1.4|EKIN|1.4>   108.530993642058
 
 !RHF expec           <1.4|POT|1.4>   -23.838359964028

 ELECTRON ORBITALS
 =================


   Orb  Occ    Energy  Couls-En    Coefficients

                                   1 1s      1 1s      1 1s      1 1s      1 1s      1 1s      1 3d0     1 3d2+    1 3d0     1 3d2+ 
                                   1 3d0     1 3d2+    1 3d0     1 3d2+    1 3d0     1 3d2+ 

   1.1   2    -4.8246  -26.1668  0.992936 -0.000823  0.007679  0.007066  0.008040 -0.003029 -0.003532  0.000000  0.001936  0.000000
                                -0.000471 -0.000000 -0.000809 -0.000000 -0.001671  0.000000

   2.1   2    -0.4760  -15.9681 -0.000000 -0.000000 -0.000000 -0.000000  0.000000 -0.000000 -0.000000  1.006351 -0.000000  0.024129
                                 0.000000  0.004780  0.000000 -0.008716  0.000000  0.000165

   3.1   2    -0.4164  -15.7377  0.004942 -0.000945 -0.001036  0.000764  0.000831 -0.000338  1.009204  0.000000  0.038930  0.000000
                                 0.016631  0.000000 -0.015279  0.000000 -0.000453  0.000000

   4.1   +    -0.2421   -6.5264 -0.033246  0.908258 -0.067348  0.101263  0.017832 -0.008934 -0.001063  0.000000 -0.009642  0.000000
                                -0.008093  0.000000  0.003735  0.000000  0.000524  0.000000

                                   1 2px     1 2px     1 2px     1 2px     1 2px     1 2px     1 4f1+    1 4f3+    1 4f1+    1 4f3+ 


   1.2   2    -3.1086  -22.5465  1.002778  0.023238  0.021609 -0.005193 -0.003265  0.001019 -0.001467  0.003800 -0.000464  0.001129

                                   1 2py     1 2py     1 2py     1 2py     1 2py     1 2py     1 4f1-    1 4f3-    1 4f1-    1 4f3- 


   1.3   2    -3.1086  -22.5465  1.002778  0.023238  0.021609 -0.005193 -0.003265  0.001019 -0.001467 -0.003800 -0.000464 -0.001129

                                   1 3d2-    1 3d2-    1 3d2-    1 3d2-    1 3d2- 

   1.4   +    -0.5331  -16.1335  1.002299  0.013309  0.000046 -0.004107  0.001627

                                   1 2pz     1 2pz     1 2pz     1 2pz     1 2pz     1 2pz     1 4f0     1 4f2+    1 4f0     1 4f2+ 


   1.5   2    -3.0984  -22.5249  1.004296  0.026544  0.023792 -0.006144 -0.005276  0.001709 -0.003001 -0.000000 -0.000924 -0.000000

                                   1 3d1+    1 3d1+    1 3d1+    1 3d1+    1 3d1+ 

   1.6   2    -0.4316  -15.7993  1.008623  0.035090  0.013226 -0.013576 -0.000297

                                   1 3d1-    1 3d1-    1 3d1-    1 3d1-    1 3d1- 

   1.7   2    -0.4316  -15.7993  1.008623  0.035090  0.013226 -0.013576 -0.000297

 HOMO      4.1    -0.242088 =      -6.5876eV
 LUMO      2.2     0.045766 =       1.2453eV
 LUMO-HOMO         0.287854 =       7.8329eV


 **********************************************************************************************************************************
 DATASETS  * FILE   NREC   LENGTH (MB)   RECORD NAMES
              1      20       20.77       500      610      700      900      950      970     1000      129      960     1100   
                                          VAR    BASINP    GEOM    SYMINP    ZMAT    AOBASIS   BASIS     P2S    ABASIS      S 
                                         1400     1410     1420     1200     1210     1080     1600     1650     1300     1700   
                                         EKIN       V       ECP      H0       H01     AOSYM     SMH    MOLCAS    ERIS     OPER   

              2       4        2.77       700     1000      520     4202   
                                         GEOM     BASIS   MCVARS     RHF  

 PROGRAMS   *        TOTAL        HF       INT
 CPU TIMES  *         1.38      0.09      1.11
 REAL TIME  *         2.99 SEC
 DISK USED  *        27.11 MB      
 **********************************************************************************************************************************
 SETTING SCF(I)         =      -168.41909948  AU                              
 SETTING _CC_NORM_MAX   =         2.00000000                                  


 PROGRAM * CCSD (Unrestricted open-shell coupled cluster)     Authors: C. Hampel, H.-J. Werner, 1991, M. Deegan, P.J. Knowles, 1992


 Convergence thresholds:  THRVAR = 1.00D-08  THRDEN = 1.00D-06

 CCSD(T)     terms to be evaluated (factor= 1.000)


 Number of closed-shell orbitals:   8 (   3   1   1   0   1   1   1   0 )
 Number of active  orbitals:        2 (   1   0   0   1   0   0   0   0 )
 Number of external orbitals:      53 (  12   9   9   4   9   4   4   2 )

 Memory could be reduced to 0.86 Mwords without degradation in triples

 Number of N-1 electron functions:              18
 Number of N-2 electron functions:             153
 Number of singly external CSFs:               166
 Number of doubly external CSFs:             45214
 Total number of CSFs:                       45380

 Molecular orbitals read from record     4202.2  Type=RHF/CANONICAL (state 1.4)

 Integral transformation finished. Total CPU:   0.00 sec, npass=  1  Memory used:   0.19 MW

 Starting RMP2 calculation

 ITER.      SQ.NORM     CORR.ENERGY   TOTAL ENERGY   ENERGY CHANGE        DEN1      VAR(S)    VAR(P)  DIIS     TIME
   1      1.10436474    -0.76933052  -169.18843000    -0.76933052    -0.00077353  0.25D-06  0.27D-03  1  1     0.02
   2      1.10498917    -0.77013829  -169.18923777    -0.00080776    -0.00000190  0.37D-08  0.12D-05  2  2     0.02
   3      1.10502422    -0.77016110  -169.18926057    -0.00002281    -0.00000001  0.80D-10  0.52D-08  3  3     0.03
   4      1.10502523    -0.77016128  -169.18926076    -0.00000019    -0.00000000  0.33D-11  0.36D-10  4  4     0.03

 Norm of t1 vector:      0.01506258      S-energy:    -0.00212301      T1 diagnostic:  0.00002128
 Norm of t2 vector:      0.32372573      P-energy:    -0.76803827
                                         Alpha-Beta:  -0.51995627
                                         Alpha-Alpha: -0.14418111
                                         Beta-Beta:   -0.10390089

 Spin contamination <S**2-Sz**2-Sz>     0.00046443
  Reference energy                   -168.419099477197
  RHF-RMP2 correlation energy          -0.770161282635
 !RHF-RMP2 energy                    -169.189260759832

 Starting UCCSD calculation

 ITER.      SQ.NORM     CORR.ENERGY   TOTAL ENERGY   ENERGY CHANGE        DEN1      VAR(S)    VAR(P)  DIIS     TIME
   1      1.07749599    -0.65880018  -169.07789965    -0.65880018    -0.04930624  0.94D-02  0.78D-02  0  0     0.13
   2      1.09213180    -0.70235752  -169.12145700    -0.04355735    -0.00859257  0.12D-02  0.24D-02  1  1     0.21
   3      1.09246245    -0.69200107  -169.11110055     0.01035645    -0.00061600  0.43D-03  0.12D-03  2  2     0.30
   4      1.09505509    -0.69286596  -169.11196544    -0.00086488    -0.00017390  0.11D-03  0.44D-04  3  3     0.39
   5      1.09928890    -0.69419909  -169.11329857    -0.00133314    -0.00002028  0.17D-04  0.39D-05  4  4     0.47
   6      1.10088748    -0.69446589  -169.11356537    -0.00026680    -0.00000183  0.87D-06  0.57D-06  5  5     0.56
   7      1.10117547    -0.69448464  -169.11358412    -0.00001875    -0.00000027  0.12D-06  0.10D-06  6  6     0.64
   8      1.10122876    -0.69448771  -169.11358719    -0.00000307    -0.00000005  0.18D-07  0.17D-07  6  1     0.73
   9      1.10122971    -0.69448808  -169.11358755    -0.00000037    -0.00000001  0.42D-08  0.27D-08  6  2     0.81

 Norm of t1 vector:      0.12131801      S-energy:    -0.00200459      T1 diagnostic:  0.02000195
                                                                       D1 diagnostic:  0.03920016
 Norm of t2 vector:      0.29412862      P-energy:    -0.69248349
                                         Alpha-Beta:  -0.49224688
                                         Alpha-Alpha: -0.11666302
                                         Beta-Beta:   -0.08357359

 Spin contamination <S**2-Sz**2-Sz>     0.00097426

 Memory could be reduced to 0.93 Mwords without degradation in triples
 

  Correlated core orbitals:             1.1       1.2       1.3       1.5
  Orbital energies:                    -4.8778   -3.1935   -3.1935   -3.1120
 
  UCCSD core-core energy               -0.105819337880
  UCCSD core-valence energy            -0.268430789408
  UCCSD valence correlation energy     -0.320237948775
 

 RESULTS
 =======

  Reference energy                   -168.419099477197
  UCCSD singles energy                 -0.002004588201
  UCCSD pair energy                    -0.692483487862
  UCCSD correlation energy             -0.694488076063
  Triples (T) contribution             -0.020881203693
  Total correlation energy             -0.715369279756
 
  RHF-UCCSD energy                   -169.113587553260
  RHF-UCCSD[T] energy                -169.138593115024
  RHF-UCCSD-T energy                 -169.134070809758
 !RHF-UCCSD(T) energy                -169.134468756953

 Program statistics:

 Available memory in ccsd:               511999000
 Min. memory needed in ccsd:                146224
 Max. memory used in ccsd:                  199946
 Max. memory used in cckext:                223300 ( 9 integral passes)
 Max. memory used in cckint:                188785 ( 1 integral passes)



 **********************************************************************************************************************************
 DATASETS  * FILE   NREC   LENGTH (MB)   RECORD NAMES
              1      20       20.77       500      610      700      900      950      970     1000      129      960     1100   
                                          VAR    BASINP    GEOM    SYMINP    ZMAT    AOBASIS   BASIS     P2S    ABASIS      S 
                                         1400     1410     1420     1200     1210     1080     1600     1650     1300     1700   
                                         EKIN       V       ECP      H0       H01     AOSYM     SMH    MOLCAS    ERIS     OPER   

              2       4        2.77       700     1000      520     4202   
                                         GEOM     BASIS   MCVARS     RHF  

 PROGRAMS   *        TOTAL  UCCSD(T)        HF       INT
 CPU TIMES  *         2.91      1.52      0.09      1.11
 REAL TIME  *         5.64 SEC
 DISK USED  *        39.06 MB      
 **********************************************************************************************************************************
 SETTING POSTHF(I)      =      -169.13446876  AU                              
                                                                                                                                                                                                                                                                

         SCF            POSTHF        EKIN          POT
    -168.4190995   -169.1344688   108.5309936   -23.83835996
                                                  

 UCCSD(T)/USERDEF energy=   -169.134468756953

        UCCSD(T)        HF-SCF  
   -169.13446876   -168.41909948
 **********************************************************************************************************************************
 Variable memory released
