
 Primary working directories    : /global/cscratch1/sd/aannabe
 Secondary working directories  : /global/cscratch1/sd/aannabe
 Wavefunction directory         : /global/homes/a/aannabe/wfu/
 Main file repository           : /global/cscratch1/sd/aannabe/

 SHA1      : 2873118e99aab1bc19f5b6fc1784693c06d15c95
 NAME      : 2015.1.8
 ARCHNAME  : linux/x86_64
 FC        : /opt/cray/pe/craype/2.5.5/bin/ftn
 BLASLIB   : -Wl,-_start-group /opt/intel/compilers_and_libraries_2016.3.210/linux/mkl/lib/intel64/libmkl_intel_ilp64.a /opt/intel/compilers_and_libraries_2016.3.210/linux/mkl/lib/intel64/libmkl_intel_thread.a /opt/intel/compilers_and_libraries_2016.3.210/linux/mkl/lib/intel64/libmkl_core.a -Wl,-_end-group
 id        : lbl

 Nodes     nprocs
 nid00444     1

 Using customized tuning parameters: mindgm=8; mindgv=16; mindgc=4; mindgr=1; noblas=0; minvec=7
 default implementation of scratch files=df  

 ***,Ni
 memory,512,m
 gthresh,twoint=1.e-12
 
 gprint,basis,orbitals
 gexpec,ekin,pot
 
 angstrom
 geometry={
 1                                                                               ! Number of atoms
 Ni 0.0 0.0 0.0
 }
 
 basis={
 Including file /global/homes/a/aannabe/docs/accurate/ccECP_D2h/pps/Ni.pp
                                             !include,/global/homes/a/aannabe/docs/accurate/ccECP_D2h/basis/aug-cc-pVnZ/Ni_qz.basis
 Including file /global/homes/a/aannabe/docs/accurate/ccECP_D2h/basis/cc-pVnZ/Ni_qz.basis
 }
 
 {hf
 start,atden
 wf,18,4,2
 occ,4,1,1,1,1,1,1,0
 open,4.1,1.4
 sym,1,1,3,2,1
 orbital,4202.2
 
 }
 scf(i)=energy
 
 _CC_NORM_MAX=2.0
 {uccsd(t)
 maxit,100
 core
 }
 posthf(i)=energy
 
 table,scf,posthf,ekin,pot
 save,4.csv,new
 
 

 Variables initialized (889), CPU time= 0.01 sec
 Commands  initialized (702), CPU time= 0.01 sec, 572 directives.
 Default parameters read. Elapsed time= 0.24 sec

 Checking input...
 Passed
1


                                         ***  PROGRAM SYSTEM MOLPRO  ***
                                       Copyright, TTI GmbH Stuttgart, 2015
                                    Version 2015.1 linked Sep  7 2016 23:09:38


 **********************************************************************************************************************************
 LABEL *   Ni                                                                            
  64 bit serial version                                                                  DATE: 13-Nov-18          TIME: 22:31:08  
 **********************************************************************************************************************************

 SHA1:             2873118e99aab1bc19f5b6fc1784693c06d15c95
 **********************************************************************************************************************************

 THRESHOLDS:

 ZERO    =  1.00D-12  ONEINT  =  1.00D-12  TWOINT  =  1.00D-12  PREFAC  =  1.00D-14  LOCALI  =  1.00D-09  EORDER  =  1.00D-04
 ENERGY  =  0.00D+00  ETEST   =  0.00D+00  EDENS   =  0.00D+00  THRDEDEF=  1.00D-06  GRADIENT=  1.00D-02  STEP    =  1.00D-03
 ORBITAL =  1.00D-05  CIVEC   =  1.00D-05  COEFF   =  1.00D-04  PRINTCI =  5.00D-02  PUNCHCI =  9.90D+01  OPTGRAD =  3.00D-04
 OPTENERG=  1.00D-06  OPTSTEP =  3.00D-04  THRGRAD =  1.00D-10  COMPRESS=  1.00D-11  VARMIN  =  1.00D-07  VARMAX  =  1.00D-03
 THRDOUB =  0.00D+00  THRDIV  =  1.00D-05  THRRED  =  1.00D-07  THRPSP  =  1.00D+00  THRDC   =  1.00D-10  THRCS   =  1.00D-10
 THRNRM  =  1.00D-08  THREQ   =  0.00D+00  THRDE   =  1.00D+00  THRREF  =  1.00D-05  SPARFAC =  1.00D+00  THRDLP  =  1.00D-07
 THRDIA  =  1.00D-10  THRDLS  =  1.00D-07  THRGPS  =  0.00D+00  THRKEX  =  0.00D+00  THRDIS  =  2.00D-01  THRVAR  =  1.00D-10
 THRLOC  =  1.00D-06  THRGAP  =  1.00D-06  THRLOCT = -1.00D+00  THRGAPT = -1.00D+00  THRORB  =  1.00D-06  THRMLTP =  0.00D+00
 THRCPQCI=  1.00D-10  KEXTA   =  0.00D+00  THRCOARS=  0.00D+00  SYMTOL  =  1.00D-06  GRADTOL =  1.00D-06  THROVL  =  1.00D-08
 THRORTH =  1.00D-08  GRID    =  1.00D-06  GRIDMAX =  1.00D-03  DTMAX   =  0.00D+00  THROCCDE=  1.00D-01  THROCCDE=  1.00D-01



 ZUNIT=ANG
 

Geometry recognized as XYZ


 Variable memory set to  512000000 words,  buffer space   230000 words

 SETTING BASIS          =    USERDEF


 Recomputing integrals since basis changed


 Using spherical harmonics



 PROGRAM * SEWARD (Integral evaluation for generally contracted gaussian basis sets)     Author: Roland Lindh, 1990

 Geometry written to block  1 of record 700

 Orientation using atomic masses  
 Molecule type: Atom
 Symmetry elements: X,Y,Z
 Rotational constants:       0.0000000      0.0000000      0.0000000 GHz  (calculated with average atomic masses)

 Point group  D2h 



 ATOMIC COORDINATES

 NR  ATOM    CHARGE       X              Y              Z

   1  NI     18.00    0.000000000    0.000000000    0.000000000


          NI  CORE POTENTIAL

          d POTENTIAL

 POWERS             1              3              2              2
 EXPONENTIALS   28.26300       26.93603       27.08601       12.21300    
 COEFFICIENTS   18.00000       508.7340      -220.1000      -2.134933    

          s - d POTENTIAL

 POWERS             2              2
 EXPONENTIALS   26.43202       11.74897    
 COEFFICIENTS   321.2400       60.34701    

          p - d POTENTIAL

 POWERS             2              2
 EXPONENTIALS   29.49300       11.55698    
 COEFFICIENTS   236.5400       44.39699    


 BASIS DATA

   Nr Sym  Nuc  Type         Exponents   Contraction coefficients

    1.1 Ag    1  1s          97.161835     0.000709   -0.000140    0.000121    0.000434    0.002461    0.000000
    2.1 Ag                   51.187866    -0.012399    0.002756    0.003322    0.004848   -0.023460    0.000000
    3.1 Ag                   26.996725     0.107220   -0.025482   -0.045785   -0.087818    0.198590    0.000000
    4.1 Ag                   15.523536    -0.124556    0.032182    0.053415    0.121852   -0.402525    0.000000
    5.1 Ag                    8.916168    -0.351023    0.086226    0.222270    0.454218   -0.405568    0.000000
    6.1 Ag                    4.795806    -0.025758    0.001104   -0.073065   -0.245765    0.387893    0.000000
                              2.619926     0.498948   -0.135790   -0.293998   -0.997345    2.684679    0.000000
                              1.330111     0.568986   -0.215724   -0.668938   -0.834586   -2.955956    0.000000
                              0.668901     0.191121   -0.158367    0.297504    2.285675   -0.667467    0.000000
                              0.230439     0.010278    0.143499    1.233748    0.251538    4.094074    0.000000
                              0.121518    -0.003627    0.443672    0.129317   -1.988796   -3.103355    0.000000
                              0.057951     0.001295    0.472558   -0.603407    0.347602   -0.768728    0.000000
                              0.027201    -0.000307    0.110173   -0.533062    0.824150    1.331217    1.000000
    7.1 Ag    1  1s           2.749235     1.000000
    8.1 Ag    1  1s           3.424032     1.000000
    9.1 Ag    1  3d0        177.900125     0.000049
                             57.372112     0.007519
                             29.881432     0.036455
                             13.971757     0.086901
                              6.841152     0.180568
                              3.379983     0.268187
                              1.651827     0.296756
                              0.799251     0.251558
                              0.388057     0.162319
                              0.191191     0.072119
                              0.093358     0.023689
   10.1 Ag    1  3d2+       177.900125     0.000049
                             57.372112     0.007519
                             29.881432     0.036455
                             13.971757     0.086901
                              6.841152     0.180568
                              3.379983     0.268187
                              1.651827     0.296756
                              0.799251     0.251558
                              0.388057     0.162319
                              0.191191     0.072119
                              0.093358     0.023689
   11.1 Ag    1  3d0        177.900125    -0.000053
                             57.372112    -0.008850
                             29.881432    -0.041916
                             13.971757    -0.104691
                              6.841152    -0.219464
                              3.379983    -0.283712
                              1.651827    -0.122127
                              0.799251     0.190123
                              0.388057     0.376598
                              0.191191     0.295122
                              0.093358     0.178252
   12.1 Ag    1  3d2+       177.900125    -0.000053
                             57.372112    -0.008850
                             29.881432    -0.041916
                             13.971757    -0.104691
                              6.841152    -0.219464
                              3.379983    -0.283712
                              1.651827    -0.122127
                              0.799251     0.190123
                              0.388057     0.376598
                              0.191191     0.295122
                              0.093358     0.178252
   13.1 Ag    1  3d0        177.900125     0.000079
                             57.372112     0.011442
                             29.881432     0.053972
                             13.971757     0.141068
                              6.841152     0.302294
                              3.379983     0.236558
                              1.651827    -0.291311
                              0.799251    -0.581758
                              0.388057    -0.024063
                              0.191191     0.389387
                              0.093358     0.430833
   14.1 Ag    1  3d2+       177.900125     0.000079
                             57.372112     0.011442
                             29.881432     0.053972
                             13.971757     0.141068
                              6.841152     0.302294
                              3.379983     0.236558
                              1.651827    -0.291311
                              0.799251    -0.581758
                              0.388057    -0.024063
                              0.191191     0.389387
                              0.093358     0.430833
   15.1 Ag    1  3d0        177.900125    -0.000124
                             57.372112    -0.016602
                             29.881432    -0.077533
                             13.971757    -0.221826
                              6.841152    -0.481658
                              3.379983     0.182447
                              1.651827     0.945626
                              0.799251    -0.334241
                              0.388057    -0.761164
                              0.191191     0.136816
                              0.093358     0.600785
   16.1 Ag    1  3d2+       177.900125    -0.000124
                             57.372112    -0.016602
                             29.881432    -0.077533
                             13.971757    -0.221826
                              6.841152    -0.481658
                              3.379983     0.182447
                              1.651827     0.945626
                              0.799251    -0.334241
                              0.388057    -0.761164
                              0.191191     0.136816
                              0.093358     0.600785
   17.1 Ag    1  3d0        177.900125     0.000000
                             57.372112     0.000000
                             29.881432     0.000000
                             13.971757     0.000000
                              6.841152     0.000000
                              3.379983     0.000000
                              1.651827     0.000000
                              0.799251     0.000000
                              0.388057     0.000000
                              0.191191     0.000000
                              0.093358     1.000000
   18.1 Ag    1  3d2+       177.900125     0.000000
                             57.372112     0.000000
                             29.881432     0.000000
                             13.971757     0.000000
                              6.841152     0.000000
                              3.379983     0.000000
                              1.651827     0.000000
                              0.799251     0.000000
                              0.388057     0.000000
                              0.191191     0.000000
                              0.093358     1.000000
   19.1 Ag    1  3d0          4.388587     1.000000
   20.1 Ag    1  3d2+         4.388587     1.000000
   21.1 Ag    1  3d0          5.303761     1.000000
   22.1 Ag    1  3d2+         5.303761     1.000000
   23.1 Ag    1  5g0          1.549000     1.000000
   24.1 Ag    1  5g4+         1.549000     1.000000
   25.1 Ag    1  5g2+         1.549000     1.000000
   26.1 Ag    1  5g0          5.290163     1.000000
   27.1 Ag    1  5g4+         5.290163     1.000000
   28.1 Ag    1  5g2+         5.290163     1.000000
   29.1 Ag    1  5g0          7.523045     1.000000
   30.1 Ag    1  5g4+         7.523045     1.000000
   31.1 Ag    1  5g2+         7.523045     1.000000
    1.2 B3u   1  2px        148.087630     0.000055    0.000027   -0.000237   -0.000260    0.000080    0.000000
    2.2 B3u                  77.452187    -0.000548   -0.000088    0.001456    0.001071   -0.000101    0.000000
    3.2 B3u                  40.915636     0.006979   -0.000773   -0.009745    0.002322   -0.006492    0.000000
    4.2 B3u                  22.575667    -0.023658    0.003345    0.037799   -0.032140    0.083129    0.000000
    5.2 B3u                  13.218268    -0.075682    0.019405    0.052521   -0.134136    0.195393    0.000000
    6.2 B3u                   7.232093     0.027253   -0.014288   -0.035006    0.229062   -0.765806    0.000000
                              4.054870     0.284778   -0.054527   -0.455577    0.752239   -1.206017    0.000000
                              2.122089     0.427632   -0.116454   -0.368306    0.205535    2.424444    0.000000
                              1.092769     0.309937   -0.060236    0.100392   -1.692910   -0.079387    0.000000
                              0.548240     0.088535   -0.023928    1.076652    0.436295   -2.325449    0.000000
                              0.238886     0.006427    0.347869   -0.045326    1.219514    2.129133    0.000000
                              0.084667     0.000708    0.522626   -0.703186   -0.945516   -0.733585    0.000000
                              0.038921     0.000186    0.276471    0.004580   -0.062232   -0.180444    1.000000
    7.2 B3u   1  2px          2.987946     1.000000
    8.2 B3u   1  2px          9.332016     1.000000
    9.2 B3u   1  4f1+         0.659980     1.000000
   10.2 B3u   1  4f3+         0.659980     1.000000
   11.2 B3u   1  4f1+         2.182234     1.000000
   12.2 B3u   1  4f3+         2.182234     1.000000
   13.2 B3u   1  4f1+         7.215589     1.000000
   14.2 B3u   1  4f3+         7.215589     1.000000
   15.2 B3u   1  4f1+         4.238774     1.000000
   16.2 B3u   1  4f3+         4.238774     1.000000
   17.2 B3u   1  6h1+         3.361535     1.000000
   18.2 B3u   1  6h3+         3.361535     1.000000
   19.2 B3u   1  6h5+         3.361535     1.000000
   20.2 B3u   1  6h1+         7.787971     1.000000
   21.2 B3u   1  6h3+         7.787971     1.000000
   22.2 B3u   1  6h5+         7.787971     1.000000
    1.3 B2u   1  2py        148.087630     0.000055    0.000027   -0.000237   -0.000260    0.000080    0.000000
    2.3 B2u                  77.452187    -0.000548   -0.000088    0.001456    0.001071   -0.000101    0.000000
    3.3 B2u                  40.915636     0.006979   -0.000773   -0.009745    0.002322   -0.006492    0.000000
    4.3 B2u                  22.575667    -0.023658    0.003345    0.037799   -0.032140    0.083129    0.000000
    5.3 B2u                  13.218268    -0.075682    0.019405    0.052521   -0.134136    0.195393    0.000000
    6.3 B2u                   7.232093     0.027253   -0.014288   -0.035006    0.229062   -0.765806    0.000000
                              4.054870     0.284778   -0.054527   -0.455577    0.752239   -1.206017    0.000000
                              2.122089     0.427632   -0.116454   -0.368306    0.205535    2.424444    0.000000
                              1.092769     0.309937   -0.060236    0.100392   -1.692910   -0.079387    0.000000
                              0.548240     0.088535   -0.023928    1.076652    0.436295   -2.325449    0.000000
                              0.238886     0.006427    0.347869   -0.045326    1.219514    2.129133    0.000000
                              0.084667     0.000708    0.522626   -0.703186   -0.945516   -0.733585    0.000000
                              0.038921     0.000186    0.276471    0.004580   -0.062232   -0.180444    1.000000
    7.3 B2u   1  2py          2.987946     1.000000
    8.3 B2u   1  2py          9.332016     1.000000
    9.3 B2u   1  4f1-         0.659980     1.000000
   10.3 B2u   1  4f3-         0.659980     1.000000
   11.3 B2u   1  4f1-         2.182234     1.000000
   12.3 B2u   1  4f3-         2.182234     1.000000
   13.3 B2u   1  4f1-         7.215589     1.000000
   14.3 B2u   1  4f3-         7.215589     1.000000
   15.3 B2u   1  4f1-         4.238774     1.000000
   16.3 B2u   1  4f3-         4.238774     1.000000
   17.3 B2u   1  6h1-         3.361535     1.000000
   18.3 B2u   1  6h3-         3.361535     1.000000
   19.3 B2u   1  6h5-         3.361535     1.000000
   20.3 B2u   1  6h1-         7.787971     1.000000
   21.3 B2u   1  6h3-         7.787971     1.000000
   22.3 B2u   1  6h5-         7.787971     1.000000
    1.4 B1g   1  3d2-       177.900125     0.000049   -0.000053    0.000079   -0.000124    0.000000
    2.4 B1g                  57.372112     0.007519   -0.008850    0.011442   -0.016602    0.000000
    3.4 B1g                  29.881432     0.036455   -0.041916    0.053972   -0.077533    0.000000
    4.4 B1g                  13.971757     0.086901   -0.104691    0.141068   -0.221826    0.000000
    5.4 B1g                   6.841152     0.180568   -0.219464    0.302294   -0.481658    0.000000
                              3.379983     0.268187   -0.283712    0.236558    0.182447    0.000000
                              1.651827     0.296756   -0.122127   -0.291311    0.945626    0.000000
                              0.799251     0.251558    0.190123   -0.581758   -0.334241    0.000000
                              0.388057     0.162319    0.376598   -0.024063   -0.761164    0.000000
                              0.191191     0.072119    0.295122    0.389387    0.136816    0.000000
                              0.093358     0.023689    0.178252    0.430833    0.600785    1.000000
    6.4 B1g   1  3d2-         4.388587     1.000000
    7.4 B1g   1  3d2-         5.303761     1.000000
    8.4 B1g   1  5g2-         1.549000     1.000000
    9.4 B1g   1  5g4-         1.549000     1.000000
   10.4 B1g   1  5g2-         5.290163     1.000000
   11.4 B1g   1  5g4-         5.290163     1.000000
   12.4 B1g   1  5g2-         7.523045     1.000000
   13.4 B1g   1  5g4-         7.523045     1.000000
    1.5 B1u   1  2pz        148.087630     0.000055    0.000027   -0.000237   -0.000260    0.000080    0.000000
    2.5 B1u                  77.452187    -0.000548   -0.000088    0.001456    0.001071   -0.000101    0.000000
    3.5 B1u                  40.915636     0.006979   -0.000773   -0.009745    0.002322   -0.006492    0.000000
    4.5 B1u                  22.575667    -0.023658    0.003345    0.037799   -0.032140    0.083129    0.000000
    5.5 B1u                  13.218268    -0.075682    0.019405    0.052521   -0.134136    0.195393    0.000000
    6.5 B1u                   7.232093     0.027253   -0.014288   -0.035006    0.229062   -0.765806    0.000000
                              4.054870     0.284778   -0.054527   -0.455577    0.752239   -1.206017    0.000000
                              2.122089     0.427632   -0.116454   -0.368306    0.205535    2.424444    0.000000
                              1.092769     0.309937   -0.060236    0.100392   -1.692910   -0.079387    0.000000
                              0.548240     0.088535   -0.023928    1.076652    0.436295   -2.325449    0.000000
                              0.238886     0.006427    0.347869   -0.045326    1.219514    2.129133    0.000000
                              0.084667     0.000708    0.522626   -0.703186   -0.945516   -0.733585    0.000000
                              0.038921     0.000186    0.276471    0.004580   -0.062232   -0.180444    1.000000
    7.5 B1u   1  2pz          2.987946     1.000000
    8.5 B1u   1  2pz          9.332016     1.000000
    9.5 B1u   1  4f0          0.659980     1.000000
   10.5 B1u   1  4f2+         0.659980     1.000000
   11.5 B1u   1  4f0          2.182234     1.000000
   12.5 B1u   1  4f2+         2.182234     1.000000
   13.5 B1u   1  4f0          7.215589     1.000000
   14.5 B1u   1  4f2+         7.215589     1.000000
   15.5 B1u   1  4f0          4.238774     1.000000
   16.5 B1u   1  4f2+         4.238774     1.000000
   17.5 B1u   1  6h2+         3.361535     1.000000
   18.5 B1u   1  6h4+         3.361535     1.000000
   19.5 B1u   1  6h0          3.361535     1.000000
   20.5 B1u   1  6h2+         7.787971     1.000000
   21.5 B1u   1  6h4+         7.787971     1.000000
   22.5 B1u   1  6h0          7.787971     1.000000
    1.6 B2g   1  3d1+       177.900125     0.000049   -0.000053    0.000079   -0.000124    0.000000
    2.6 B2g                  57.372112     0.007519   -0.008850    0.011442   -0.016602    0.000000
    3.6 B2g                  29.881432     0.036455   -0.041916    0.053972   -0.077533    0.000000
    4.6 B2g                  13.971757     0.086901   -0.104691    0.141068   -0.221826    0.000000
    5.6 B2g                   6.841152     0.180568   -0.219464    0.302294   -0.481658    0.000000
                              3.379983     0.268187   -0.283712    0.236558    0.182447    0.000000
                              1.651827     0.296756   -0.122127   -0.291311    0.945626    0.000000
                              0.799251     0.251558    0.190123   -0.581758   -0.334241    0.000000
                              0.388057     0.162319    0.376598   -0.024063   -0.761164    0.000000
                              0.191191     0.072119    0.295122    0.389387    0.136816    0.000000
                              0.093358     0.023689    0.178252    0.430833    0.600785    1.000000
    6.6 B2g   1  3d1+         4.388587     1.000000
    7.6 B2g   1  3d1+         5.303761     1.000000
    8.6 B2g   1  5g1+         1.549000     1.000000
    9.6 B2g   1  5g3+         1.549000     1.000000
   10.6 B2g   1  5g1+         5.290163     1.000000
   11.6 B2g   1  5g3+         5.290163     1.000000
   12.6 B2g   1  5g1+         7.523045     1.000000
   13.6 B2g   1  5g3+         7.523045     1.000000
    1.7 B3g   1  3d1-       177.900125     0.000049   -0.000053    0.000079   -0.000124    0.000000
    2.7 B3g                  57.372112     0.007519   -0.008850    0.011442   -0.016602    0.000000
    3.7 B3g                  29.881432     0.036455   -0.041916    0.053972   -0.077533    0.000000
    4.7 B3g                  13.971757     0.086901   -0.104691    0.141068   -0.221826    0.000000
    5.7 B3g                   6.841152     0.180568   -0.219464    0.302294   -0.481658    0.000000
                              3.379983     0.268187   -0.283712    0.236558    0.182447    0.000000
                              1.651827     0.296756   -0.122127   -0.291311    0.945626    0.000000
                              0.799251     0.251558    0.190123   -0.581758   -0.334241    0.000000
                              0.388057     0.162319    0.376598   -0.024063   -0.761164    0.000000
                              0.191191     0.072119    0.295122    0.389387    0.136816    0.000000
                              0.093358     0.023689    0.178252    0.430833    0.600785    1.000000
    6.7 B3g   1  3d1-         4.388587     1.000000
    7.7 B3g   1  3d1-         5.303761     1.000000
    8.7 B3g   1  5g1-         1.549000     1.000000
    9.7 B3g   1  5g3-         1.549000     1.000000
   10.7 B3g   1  5g1-         5.290163     1.000000
   11.7 B3g   1  5g3-         5.290163     1.000000
   12.7 B3g   1  5g1-         7.523045     1.000000
   13.7 B3g   1  5g3-         7.523045     1.000000
    1.8 Au    1  4f2-         0.659980     1.000000
    2.8 Au    1  4f2-         2.182234     1.000000
    3.8 Au    1  4f2-         7.215589     1.000000
    4.8 Au    1  4f2-         4.238774     1.000000
    5.8 Au    1  6h4-         3.361535     1.000000
    6.8 Au    1  6h2-         3.361535     1.000000
    7.8 Au    1  6h4-         7.787971     1.000000
    8.8 Au    1  6h2-         7.787971     1.000000

 NUCLEAR CHARGE:                   18
 NUMBER OF PRIMITIVE AOS:         265
 NUMBER OF SYMMETRY AOS:          202
 NUMBER OF CONTRACTIONS:          144   (  31Ag  +  22B3u +  22B2u +  13B1g +  22B1u +  13B2g +  13B3g +   8Au  )
 NUMBER OF CORE ORBITALS:           4   (   1Ag  +   1B3u +   1B2u +   0B1g +   1B1u +   0B2g +   0B3g +   0Au  )
 NUMBER OF VALENCE ORBITALS:        6   (   3Ag  +   0B3u +   0B2u +   1B1g +   0B1u +   1B2g +   1B3g +   0Au  )


 NUCLEAR REPULSION ENERGY    0.00000000

 EXTRA SYMMETRY OF AOS IN SYMMETRY 1:   1 1 1 1 1 1 1 1 2 3   2 3 2 3 2 3 2 3 2 3   2 3 4 5 6 4 5 6 4 5   6
 EXTRA SYMMETRY OF AOS IN SYMMETRY 2:   1 1 1 1 1 1 1 1 2 3   2 3 2 3 2 3 4 5 6 4   5 6
 EXTRA SYMMETRY OF AOS IN SYMMETRY 3:   1 1 1 1 1 1 1 1 2 3   2 3 2 3 2 3 4 5 6 4   5 6
 EXTRA SYMMETRY OF AOS IN SYMMETRY 4:   1 1 1 1 1 1 1 2 3 2   3 2 3
 EXTRA SYMMETRY OF AOS IN SYMMETRY 5:   1 1 1 1 1 1 1 1 2 3   2 3 2 3 2 3 4 5 6 4   5 6
 EXTRA SYMMETRY OF AOS IN SYMMETRY 6:   1 1 1 1 1 1 1 2 3 2   3 2 3
 EXTRA SYMMETRY OF AOS IN SYMMETRY 7:   1 1 1 1 1 1 1 2 3 2   3 2 3
 EXTRA SYMMETRY OF AOS IN SYMMETRY 8:   1 1 1 1 2 3 2 3

 Eigenvalues of metric

         1 0.199E-03 0.211E-02 0.211E-02 0.307E-02 0.240E-01 0.240E-01 0.496E-01 0.496E-01
         2 0.126E-02 0.402E-01 0.402E-01 0.649E-01 0.152E+00 0.380E+00 0.380E+00 0.427E+00
         3 0.126E-02 0.402E-01 0.402E-01 0.649E-01 0.152E+00 0.380E+00 0.380E+00 0.427E+00
         4 0.211E-02 0.240E-01 0.496E-01 0.648E-01 0.648E-01 0.857E+00 0.857E+00 0.999E+00
         5 0.126E-02 0.402E-01 0.402E-01 0.649E-01 0.152E+00 0.380E+00 0.380E+00 0.427E+00
         6 0.211E-02 0.240E-01 0.496E-01 0.648E-01 0.648E-01 0.857E+00 0.857E+00 0.999E+00
         7 0.211E-02 0.240E-01 0.496E-01 0.648E-01 0.648E-01 0.857E+00 0.857E+00 0.999E+00
         8 0.402E-01 0.380E+00 0.427E+00 0.427E+00 0.105E+01 0.157E+01 0.157E+01 0.253E+01


 Contracted 2-electron integrals neglected if value below      1.0D-12
 AO integral compression algorithm  1   Integral accuracy      1.0D-12

     54.002 MB (compressed) written to integral file ( 58.2%)


 NUMBER OF SORTED TWO-ELECTRON INTEGRALS:    7063297.     BUFFER LENGTH:  32768
 NUMBER OF SEGMENTS:   1  SEGMENT LENGTH:    7063297      RECORD LENGTH: 524288

 Memory used in sort:       7.62 MW

 SORT1 READ    11599838. AND WROTE     4948094. INTEGRALS IN     15 RECORDS. CPU TIME:     0.37 SEC, REAL TIME:     0.52 SEC
 SORT2 READ     4948094. AND WROTE     7063297. INTEGRALS IN    206 RECORDS. CPU TIME:     0.32 SEC, REAL TIME:     0.55 SEC

 FILE SIZES:   FILE 1:    73.6 MBYTE,  FILE 4:    62.9 MBYTE,   TOTAL:    136.5 MBYTE

 OPERATOR DM      FOR CENTER  0  COORDINATES:    0.000000    0.000000    0.000000
 OPERATOR EKIN    FOR CENTER  0  COORDINATES:    0.000000    0.000000    0.000000
 OPERATOR POT     FOR CENTER  0  COORDINATES:    0.000000    0.000000    0.000000


 **********************************************************************************************************************************
 DATASETS  * FILE   NREC   LENGTH (MB)   RECORD NAMES
              1      20       51.65       500      610      700      900      950      970     1000      129      960     1100   
                                          VAR    BASINP    GEOM    SYMINP    ZMAT    AOBASIS   BASIS     P2S    ABASIS      S 
                                         1400     1410     1420     1200     1210     1080     1600     1650     1300     1700   
                                         EKIN       V       ECP      H0       H01     AOSYM     SMH    MOLCAS    ERIS     OPER   

 PROGRAMS   *        TOTAL       INT
 CPU TIMES  *         4.51      4.37
 REAL TIME  *        11.71 SEC
 DISK USED  *       136.86 MB      
 **********************************************************************************************************************************


 PROGRAM * RHF-SCF (OPEN SHELL)       Authors: W. Meyer, H.-J. Werner


 NUMBER OF ELECTRONS:      10+    8-    SPACE SYMMETRY=4    SPIN SYMMETRY: Triplet 
 CONVERGENCE THRESHOLDS:    1.00E-05 (Density)    1.00E-07 (Energy)
 MAX. NUMBER OF ITERATIONS:       60
 INTERPOLATION TYPE:            DIIS
 INTERPOLATION STEPS:              2 (START)      1 (STEP)
 LEVEL SHIFTS:                 -0.60 (CLOSED) -0.30 (OPEN) 


 Singly occupied orbitals:      4.1       1.4
 
 Extra symmetries of mos in symmetry 1:   1   3   2   1

   Atom=NI basis=ECP10MDF_GUESS    lmin=0  lmax=2

 Orbital guess generated from atomic densities. Full valence occupancy:    4   1   1   1   1   1   1   0


 Molecular orbital dump at record        4202.2

 ITERATION    DDIFF          GRAD             ENERGY        2-EL.EN.            DIPOLE MOMENTS         DIIS   ORB.
    1      0.000D+00      0.000D+00      -167.51811880    242.228703    0.00000    0.00000    0.00000    0    start
    2      0.000D+00      0.110D+00      -167.88213307    289.436718    0.00000    0.00000    0.00000    1    diag,B
    3      0.256D-01      0.105D+00      -168.40738905    272.749630    0.00000    0.00000    0.00000    2    diag,B
    4      0.963D-02      0.121D-01      -168.41835713    271.300967    0.00000    0.00000    0.00000    3    diag,B
    5      0.343D-02      0.191D-02      -168.41998059    271.511249    0.00000    0.00000    0.00000    4    diag,B
    6      0.423D-02      0.503D-03      -168.42017747    271.652105    0.00000    0.00000    0.00000    5    diag,B
    7      0.311D-02      0.107D-03      -168.42018639    271.664503    0.00000    0.00000    0.00000    6    fixocc
    8      0.102D-02      0.270D-04      -168.42018717    271.667482    0.00000    0.00000    0.00000    7    diag,B
    9      0.196D-03      0.971D-05      -168.42018735    271.669995    0.00000    0.00000    0.00000    8    diag,B
   10      0.989D-04      0.334D-05      -168.42018738    271.670641    0.00000    0.00000    0.00000    9    orth
   11      0.164D-04      0.200D-05      -168.42018740    271.670994    0.00000    0.00000    0.00000    9    diag,B
   12      0.111D-04      0.122D-05      -168.42018741    271.671091    0.00000    0.00000    0.00000    9    diag,B
   13      0.745D-05      0.815D-06      -168.42018741    271.671105    0.00000    0.00000    0.00000    0    orth

 Final alpha occupancy:   4   1   1   1   1   1   1   0
 Final beta  occupancy:   3   1   1   0   1   1   1   0

 !RHF STATE 1.4 Energy               -168.420187407057
 Nuclear energy                         0.00000000
 One-electron energy                 -304.25573982
 Two-electron energy                  135.83555241
 Virial quotient                       -1.55169583
 !RHF STATE 1.4 Dipole moment           0.00000000     0.00000000     0.00000000
 Dipole moment /Debye                   0.00000000     0.00000000     0.00000000
 

 !RHF expec          <1.4|EKIN|1.4>   108.539434276792
 
 !RHF expec           <1.4|POT|1.4>   -23.837881841027

 ELECTRON ORBITALS
 =================


   Orb  Occ    Energy  Couls-En    Coefficients

                                   1 1s      1 1s      1 1s      1 1s      1 1s      1 1s      1 1s      1 1s      1 3d0     1 3d2+ 
                                   1 3d0     1 3d2+    1 3d0     1 3d2+    1 3d0     1 3d2+    1 3d0     1 3d2+    1 3d0     1 3d2+ 
                                   1 3d0     1 3d2+    1 5g0     1 5g4+    1 5g2+    1 5g0     1 5g4+    1 5g2+    1 5g0     1 5g4+ 
                                   1 5g2+ 

   1.1   2    -4.8255  -26.1665  1.002142  0.007499  0.004167  0.004212 -0.000075 -0.002530 -0.009706  0.008366 -0.005006 -0.000000
                                 0.001557 -0.000000 -0.000466 -0.000000 -0.000786 -0.000000  0.000601  0.000000 -0.001107  0.000000
                                 0.000449 -0.000000 -0.000119  0.000738  0.000000 -0.000005  0.000066 -0.000000 -0.000031  0.000182
                                 0.000000

   2.1   2    -0.4760  -15.9640  0.000000  0.000000 -0.000000  0.000000  0.000000 -0.000000  0.000000 -0.000000 -0.000000  1.001037
                                -0.000000  0.030955  0.000000  0.010018  0.000000  0.000985 -0.000000 -0.005745 -0.000000  0.000143
                                -0.000000  0.000126 -0.000000  0.000000 -0.001630  0.000000 -0.000000 -0.000496 -0.000000  0.000000
                                -0.000116

   3.1   2    -0.4185  -15.7402  0.005213  0.001739 -0.000946  0.000359 -0.000056  0.000061  0.000456 -0.000401  1.000051  0.000000
                                 0.050417  0.000000  0.017713  0.000000  0.001759  0.000000 -0.002702 -0.000000 -0.000371  0.000000
                                 0.000142 -0.000000 -0.002469 -0.000470 -0.000000 -0.000739 -0.000066  0.000000 -0.000171 -0.000075
                                -0.000000

   4.1   +    -0.2422   -6.5272 -0.011057  0.963911 -0.093949  0.018606  0.002194  0.035903  0.004126 -0.004530 -0.000499  0.000000
                                -0.011957 -0.000000 -0.003845 -0.000000 -0.000140  0.000000 -0.003880  0.000000  0.000242 -0.000000
                                -0.000036  0.000000  0.000107 -0.000583  0.000000 -0.000072  0.000344 -0.000000  0.000017 -0.000089
                                 0.000000

                                   1 2px     1 2px     1 2px     1 2px     1 2px     1 2px     1 2px     1 2px     1 4f1+    1 4f3+ 
                                   1 4f1+    1 4f3+    1 4f1+    1 4f3+    1 4f1+    1 4f3+    1 6h1+    1 6h3+    1 6h5+    1 6h1+ 
                                   1 6h3+    1 6h5+ 

   1.2   2    -3.1087  -22.5464  0.999818  0.024477  0.020091 -0.000265 -0.001450 -0.007418  0.000727 -0.000179  0.000010  0.002598
                                -0.001164  0.003239 -0.000240  0.001344 -0.000408 -0.000002  0.000024  0.000021 -0.000160  0.000010
                                 0.000011 -0.000073

                                   1 2py     1 2py     1 2py     1 2py     1 2py     1 2py     1 2py     1 2py     1 4f1-    1 4f3- 
                                   1 4f1-    1 4f3-    1 4f1-    1 4f3-    1 4f1-    1 4f3-    1 6h1-    1 6h3-    1 6h5-    1 6h1- 
                                   1 6h3-    1 6h5- 

   1.3   2    -3.1087  -22.5464  0.999818  0.024477  0.020091 -0.000265 -0.001450 -0.007418  0.000727 -0.000179  0.000010 -0.002598
                                -0.001164 -0.003239 -0.000240 -0.001344 -0.000408  0.000002  0.000024 -0.000021 -0.000160  0.000010
                                -0.000011 -0.000073

                                   1 3d2-    1 3d2-    1 3d2-    1 3d2-    1 3d2-    1 3d2-    1 3d2-    1 5g2-    1 5g4-    1 5g2- 
                                   1 5g4-    1 5g2-    1 5g4- 

   1.4   +    -0.5328  -16.1321  1.000946  0.017260  0.005951  0.001422 -0.006779  0.000643  0.000232 -0.002892  0.000000 -0.001066
                                -0.000000 -0.000146  0.000000

                                   1 2pz     1 2pz     1 2pz     1 2pz     1 2pz     1 2pz     1 2pz     1 2pz     1 4f0     1 4f2+ 
                                   1 4f0     1 4f2+    1 4f0     1 4f2+    1 4f0     1 4f2+    1 6h2+    1 6h4+    1 6h0     1 6h2+ 
                                   1 6h4+    1 6h0  

   1.5   2    -3.1012  -22.5278  1.000624  0.027314  0.021455  0.000331 -0.001666 -0.008215 -0.000281  0.000114 -0.000814  0.000000
                                -0.002450 -0.000000 -0.000720 -0.000000 -0.000495  0.000000  0.000000 -0.000102  0.000033 -0.000000
                                -0.000046  0.000014

                                   1 3d1+    1 3d1+    1 3d1+    1 3d1+    1 3d1+    1 3d1+    1 3d1+    1 5g1+    1 5g3+    1 5g1+ 
                                   1 5g3+    1 5g1+    1 5g3+ 

   1.6   2    -0.4331  -15.7997  1.000440  0.045372  0.015707  0.001552 -0.003749 -0.000236  0.000135 -0.002211  0.000291 -0.000674
                                 0.000040 -0.000149  0.000047

                                   1 3d1-    1 3d1-    1 3d1-    1 3d1-    1 3d1-    1 3d1-    1 3d1-    1 5g1-    1 5g3-    1 5g1- 
                                   1 5g3-    1 5g1-    1 5g3- 

   1.7   2    -0.4331  -15.7997  1.000440  0.045372  0.015707  0.001552 -0.003749 -0.000236  0.000135 -0.002211 -0.000291 -0.000674
                                -0.000040 -0.000149 -0.000047

 HOMO      4.1    -0.242220 =      -6.5911eV
 LUMO      2.2     0.044433 =       1.2091eV
 LUMO-HOMO         0.286653 =       7.8002eV


 **********************************************************************************************************************************
 DATASETS  * FILE   NREC   LENGTH (MB)   RECORD NAMES
              1      20       51.65       500      610      700      900      950      970     1000      129      960     1100   
                                          VAR    BASINP    GEOM    SYMINP    ZMAT    AOBASIS   BASIS     P2S    ABASIS      S 
                                         1400     1410     1420     1200     1210     1080     1600     1650     1300     1700   
                                         EKIN       V       ECP      H0       H01     AOSYM     SMH    MOLCAS    ERIS     OPER   

              2       4        2.86       700     1000      520     4202   
                                         GEOM     BASIS   MCVARS     RHF  

 PROGRAMS   *        TOTAL        HF       INT
 CPU TIMES  *         4.95      0.44      4.37
 REAL TIME  *        12.74 SEC
 DISK USED  *       136.86 MB      
 **********************************************************************************************************************************
 SETTING SCF(I)         =      -168.42018741  AU                              
 SETTING _CC_NORM_MAX   =         2.00000000                                  


 PROGRAM * CCSD (Unrestricted open-shell coupled cluster)     Authors: C. Hampel, H.-J. Werner, 1991, M. Deegan, P.J. Knowles, 1992


 Convergence thresholds:  THRVAR = 1.00D-08  THRDEN = 1.00D-06

 CCSD(T)     terms to be evaluated (factor= 1.000)


 Number of closed-shell orbitals:   8 (   3   1   1   0   1   1   1   0 )
 Number of active  orbitals:        2 (   1   0   0   1   0   0   0   0 )
 Number of external orbitals:     134 (  27  21  21  12  21  12  12   8 )

 Memory could be reduced to 6.64 Mwords without degradation in triples

 Number of N-1 electron functions:              18
 Number of N-2 electron functions:             153
 Number of singly external CSFs:               383
 Number of doubly external CSFs:            273547
 Total number of CSFs:                      273930

 Molecular orbitals read from record     4202.2  Type=RHF/CANONICAL (state 1.4)

 Integral transformation finished. Total CPU:   0.14 sec, npass=  1  Memory used:   1.37 MW

 Starting RMP2 calculation

 ITER.      SQ.NORM     CORR.ENERGY   TOTAL ENERGY   ENERGY CHANGE        DEN1      VAR(S)    VAR(P)  DIIS     TIME
   1      1.12041113    -0.95897704  -169.37916445    -0.95897704    -0.00085541  0.27D-06  0.29D-03  1  1     0.15
   2      1.12107435    -0.95986913  -169.38005654    -0.00089209    -0.00000186  0.36D-08  0.11D-05  2  2     0.17
   3      1.12110854    -0.95989268  -169.38008008    -0.00002354    -0.00000001  0.10D-09  0.59D-08  3  3     0.18
   4      1.12110961    -0.95989292  -169.38008033    -0.00000024    -0.00000000  0.44D-11  0.36D-10  4  4     0.19

 Norm of t1 vector:      0.01790190      S-energy:    -0.00275704      T1 diagnostic:  0.00002124
 Norm of t2 vector:      0.34754731      P-energy:    -0.95713588
                                         Alpha-Beta:  -0.66355266
                                         Alpha-Alpha: -0.17173860
                                         Beta-Beta:   -0.12184462

 Spin contamination <S**2-Sz**2-Sz>     0.00043897
  Reference energy                   -168.420187407057
  RHF-RMP2 correlation energy          -0.959892918996
 !RHF-RMP2 energy                    -169.380080326053

 Starting UCCSD calculation

 ITER.      SQ.NORM     CORR.ENERGY   TOTAL ENERGY   ENERGY CHANGE        DEN1      VAR(S)    VAR(P)  DIIS     TIME
   1      1.08884166    -0.83715828  -169.25734569    -0.83715828    -0.05361942  0.95D-02  0.85D-02  0  0     0.68
   2      1.10470937    -0.88543672  -169.30562412    -0.04827844    -0.01022005  0.19D-02  0.26D-02  1  1     1.14
   3      1.10379908    -0.87332807  -169.29351548     0.01210865    -0.00056808  0.43D-03  0.91D-04  2  2     1.59
   4      1.10607424    -0.87391295  -169.29410035    -0.00058488    -0.00015874  0.13D-03  0.30D-04  3  3     2.07
   5      1.10995463    -0.87509417  -169.29528158    -0.00118122    -0.00001892  0.19D-04  0.28D-05  4  4     2.53
   6      1.11120372    -0.87532367  -169.29551108    -0.00022950    -0.00000291  0.20D-05  0.73D-06  5  5     3.01
   7      1.11171798    -0.87537578  -169.29556318    -0.00005210    -0.00000026  0.17D-06  0.67D-07  6  6     3.47
   8      1.11179356    -0.87537545  -169.29556286     0.00000032    -0.00000003  0.13D-07  0.10D-07  6  1     3.95
   9      1.11180336    -0.87537896  -169.29556637    -0.00000351    -0.00000000  0.14D-08  0.15D-08  6  2     4.42
  10      1.11180367    -0.87537695  -169.29556435     0.00000202    -0.00000000  0.70D-09  0.34D-09  6  3     4.90
  11      1.11180708    -0.87537819  -169.29556560    -0.00000124    -0.00000000  0.57D-09  0.83D-10  6  6     5.39
  12      1.11180642    -0.87537825  -169.29556565    -0.00000005    -0.00000000  0.54D-09  0.46D-10  6  4     5.86

 Norm of t1 vector:      0.12225360      S-energy:    -0.00263201      T1 diagnostic:  0.02012392
                                                                       D1 diagnostic:  0.05509143
 Norm of t2 vector:      0.31122417      P-energy:    -0.87274623
                                         Alpha-Beta:  -0.63022510
                                         Alpha-Alpha: -0.14244977
                                         Beta-Beta:   -0.10007136

 Singles amplitudes (print threshold =  0.500E-01):

         I         SYM. A    A   T(IA) [Alpha-Alpha]

         4         1         2      0.05991806

 Spin contamination <S**2-Sz**2-Sz>     0.00086506

 Memory could be reduced to 7.04 Mwords without degradation in triples
 

  Correlated core orbitals:             1.1       1.2       1.3       1.5
  Orbital energies:                    -4.8787   -3.1936   -3.1936   -3.1148
 
  UCCSD core-core energy               -0.134875183053
  UCCSD core-valence energy            -0.352888534365
  UCCSD valence correlation energy     -0.387614528340
 

 RESULTS
 =======

  Reference energy                   -168.420187407057
  UCCSD singles energy                 -0.002632011015
  UCCSD pair energy                    -0.872746234742
  UCCSD correlation energy             -0.875378245757
  Triples (T) contribution             -0.030245247828
  Total correlation energy             -0.905623493585
 
  RHF-UCCSD energy                   -169.295565652814
  RHF-UCCSD[T] energy                -169.329685302250
  RHF-UCCSD-T energy                 -169.325489095197
 !RHF-UCCSD(T) energy                -169.325810900642

 Program statistics:

 Available memory in ccsd:               511999000
 Min. memory needed in ccsd:                831855
 Max. memory used in ccsd:                 1163357
 Max. memory used in cckext:                949083 (12 integral passes)
 Max. memory used in cckint:               1372654 ( 1 integral passes)



 **********************************************************************************************************************************
 DATASETS  * FILE   NREC   LENGTH (MB)   RECORD NAMES
              1      20       51.65       500      610      700      900      950      970     1000      129      960     1100   
                                          VAR    BASINP    GEOM    SYMINP    ZMAT    AOBASIS   BASIS     P2S    ABASIS      S 
                                         1400     1410     1420     1200     1210     1080     1600     1650     1300     1700   
                                         EKIN       V       ECP      H0       H01     AOSYM     SMH    MOLCAS    ERIS     OPER   

              2       4        2.86       700     1000      520     4202   
                                         GEOM     BASIS   MCVARS     RHF  

 PROGRAMS   *        TOTAL  UCCSD(T)        HF       INT
 CPU TIMES  *        21.67     16.72      0.44      4.37
 REAL TIME  *        36.97 SEC
 DISK USED  *       181.59 MB      
 **********************************************************************************************************************************
 SETTING POSTHF(I)      =      -169.32581090  AU                              
                                                                                                                                                                                                                                                                

         SCF            POSTHF        EKIN          POT
    -168.4201874   -169.3258109   108.5394343   -23.83788184
                                                  

 UCCSD(T)/USERDEF energy=   -169.325810900642

        UCCSD(T)        HF-SCF  
   -169.32581090   -168.42018741
 **********************************************************************************************************************************
 Variable memory released
