TACC:  Starting up job 3912563 
TACC:  Starting parallel tasks... 
  Input file(s): Kr.log.qmc.in-wfj.xml 

=====================================================
                    QMCPACK 3.7.9

       (c) Copyright 2003-  QMCPACK developers

                    Please cite:
 J. Kim et al. J. Phys. Cond. Mat. 30 195901 (2018)
      https://doi.org/10.1088/1361-648X/aab9c3

  Git branch: develop
  Last git commit: 9a049a3fb3e0d7110d61a924a52203fd8296522a
  Last git commit date: Mon Jul 1 13:42:43 2019 -0500
  Last git commit subject: Merge pull request #1686 from ye-luo/rename-to-LCAOHDFParser
=====================================================
  Global options 

  Total number of MPI ranks = 1024
  Number of MPI groups      = 1
  MPI group ID              = 0
  Number of ranks in group  = 1024
  MPI ranks per node        = 64
  OMP 1st level threads     = 1
  OMP nested threading disabled or only 1 thread on the 2nd level

  Precision used in this calculation, see definitions in the manual:
  Base precision      = double
  Full precision      = double

  Structure-of-arrays (SoA) optimization enabled

  Input XML = Kr.log.qmc.in-wfj.xml

  Project = Kr.log
  date    = 2019-07-01 20:39:58 CDT
  host    = c403-011.stampede2.tacc.utexas.edu

 Random Number
 -------------
  Offset for the random number seeds based on time: 494

  Range of prime numbers to use as seeds over processors and threads = 3541-12739


 Particle Set 
 ------------
  Name: ion0
  All the species have the same mass 1
  Particle set size: 1

 Particle Set 
 ------------
  Name: e
  All the species have the same mass 1
  Particle set size: 8

 Wavefunction setup: 
 ------------------- 
  Name: psi0
  LCAO: SoaAtomicBasisSet<MultiQuintic,1>
Reading BasisSet from HDF5 file:Kr.log.h5
<input node="atomicBasisSet" name="gaussian" expandYlm="pyscf" angular="spherical" elementType="Kr" normalized="no" type="Numerical" expM="0" />
  AO BasisSet for Kr
   Spherical Harmonics contain (-1)^m factor
   Angular momentum m expanded as -l, ... ,l, with the exception of L=1 (1,-1,0)
   Grid is created by the input paremters in h5
    Using log grid ri = 1e-06 rf = 100 npts = 1001
   R(n,l,m,s) 0 0 0 0
   R(n,l,m,s) 1 0 0 0
   R(n,l,m,s) 2 0 0 0
   R(n,l,m,s) 3 1 0 0
   R(n,l,m,s) 4 1 0 0
   R(n,l,m,s) 5 1 0 0
   R(n,l,m,s) 6 2 0 0
   R(n,l,m,s) 7 2 0 0
   R(n,l,m,s) 8 3 0 0
Expanding Ylm as L=1 as (1,-1,0) and L>1 as -l,-l+1,...,l-1,l
   Adding 1 spherical orbitals
   Adding 1 spherical orbitals
   Adding 1 spherical orbitals
   Adding 3 spherical orbitals
   Adding 3 spherical orbitals
   Adding 3 spherical orbitals
   Adding 5 spherical orbitals
   Adding 5 spherical orbitals
   Adding 7 spherical orbitals
  Setting cutoff radius 10.9648

   Maximum Angular Momentum  = 3
   Number of Radial functors = 9
   Basis size                = 29

  Created SPOSet builder named 'LCAOBSet' of type molecularorbital
Reuse SPOSetBuilder "LCAOBSet" type MolecularOrbital
  Building SPOSet '' with '' basis set.
Reuse SPOSetBuilder "LCAOBSet" type MolecularOrbital
  Building SPOSet '' with '' basis set.
  Creating a determinant updet group=0 sposet=updet
  Reusing a SPO set updet
Using DiracDeterminant with DelayedUpdate engine
Using rank-1 Sherman-Morrison Fahy update

  Creating a determinant downdet group=1 sposet=downdet
  Reusing a SPO set downdet
Using DiracDeterminant with DelayedUpdate engine
Using rank-1 Sherman-Morrison Fahy update

  FermionWF = SlaterDet

   Jastrow
   -------
    Name: J2   Type: Two-Body   Function: Bspline

    Radial function for species: u - u
     Number of parameters: 10
     Cusp: -0.25
     Cutoff radius: 10

     Name                        Value Type Recompute Use Index
     ---- ---------------------------- ---- --------- --- -----
     uu_0                 0.000000e+00    1         1  ON     0
     uu_1                 0.000000e+00    1         1  ON     1
     uu_2                 0.000000e+00    1         1  ON     2
     uu_3                 0.000000e+00    1         1  ON     3
     uu_4                 0.000000e+00    1         1  ON     4
     uu_5                 0.000000e+00    1         1  ON     5
     uu_6                 0.000000e+00    1         1  ON     6
     uu_7                 0.000000e+00    1         1  ON     7
     uu_8                 0.000000e+00    1         1  ON     8
     uu_9                 0.000000e+00    1         1  ON     9

    Radial function for species: u - d
     Number of parameters: 10
     Cusp: -0.5
     Cutoff radius: 10

     Name                        Value Type Recompute Use Index
     ---- ---------------------------- ---- --------- --- -----
     ud_0                 0.000000e+00    1         1  ON     0
     ud_1                 0.000000e+00    1         1  ON     1
     ud_2                 0.000000e+00    1         1  ON     2
     ud_3                 0.000000e+00    1         1  ON     3
     ud_4                 0.000000e+00    1         1  ON     4
     ud_5                 0.000000e+00    1         1  ON     5
     ud_6                 0.000000e+00    1         1  ON     6
     ud_7                 0.000000e+00    1         1  ON     7
     ud_8                 0.000000e+00    1         1  ON     8
     ud_9                 0.000000e+00    1         1  ON     9


   Jastrow
   -------
    Name: J1   Type: One-Body   Function: Bspline

    Radial function for element: Kr
     Number of parameters: 10
     Cusp: 0
     Cutoff radius: 10

      Name                        Value Type Recompute Use Index
     ----- ---------------------------- ---- --------- --- -----
     eKr_0                 0.000000e+00    1         1  ON     0
     eKr_1                 0.000000e+00    1         1  ON     1
     eKr_2                 0.000000e+00    1         1  ON     2
     eKr_3                 0.000000e+00    1         1  ON     3
     eKr_4                 0.000000e+00    1         1  ON     4
     eKr_5                 0.000000e+00    1         1  ON     5
     eKr_6                 0.000000e+00    1         1  ON     6
     eKr_7                 0.000000e+00    1         1  ON     7
     eKr_8                 0.000000e+00    1         1  ON     8
     eKr_9                 0.000000e+00    1         1  ON     9


   Jastrow
   -------
    Name: J3   Type: eeI   Function: polynomial

     Ion: Kr   electron-electron: u - u
      Number of parameters for e-e: 3, for e-I: 3
      Cutoff radius: 10

Expected 26 parameters, but found 0 in PolynomialFunctor3D.
     Ion: Kr   electron-electron: u - d
      Number of parameters for e-e: 3, for e-I: 3
      Cutoff radius: 10

Expected 26 parameters, but found 0 in PolynomialFunctor3D.
  QMCHamiltonian::addOperator Kinetic to H, physical Hamiltonian 
  QMCHamiltonian::addOperator ElecElec to H, physical Hamiltonian 
QMCHamiltonian::addOperatorType added type coulomb named ElecElec
  CoulombAA for ion0 is not created.  Number of particles == 1 and nonPeriodic

  ECPotential builder for pseudopotential 

  Adding pseudopotential for Kr
   Linear grid  ri=0 rf=10 npts = 10001
    ECPComponentBuilder::buildSemiLocalAndLocal 
    Assuming Hartree unit
   Number of angular momentum channels 4
   Maximum angular momentum channel 3
   Creating a Linear Grid Rmax=2.895
  Using global grid with delta = 0.001
   Making L=3 a local potential with a radial cutoff of 9.999
    Non-local pseudopotential parameters
    Maximum angular mementum = 2
    Number of non-local channels = 3
       l(0)=0
       l(1)=1
       l(2)=2
    Cutoff radius = 2.895
    Spherical grids and weights: 
                        1                 0                 0       0.08333333333
                       -1   1.224646799e-16                 0       0.08333333333
             0.4472135955       0.894427191                 0       0.08333333333
            -0.4472135955      0.7236067977      0.5257311121       0.08333333333
             0.4472135955      0.2763932023      0.8506508084       0.08333333333
            -0.4472135955     -0.2763932023      0.8506508084       0.08333333333
             0.4472135955     -0.7236067977      0.5257311121       0.08333333333
            -0.4472135955      -0.894427191   1.095357397e-16       0.08333333333
             0.4472135955     -0.7236067977     -0.5257311121       0.08333333333
            -0.4472135955     -0.2763932023     -0.8506508084       0.08333333333
             0.4472135955      0.2763932023     -0.8506508084       0.08333333333
            -0.4472135955      0.7236067977     -0.5257311121       0.08333333333
    Maximum cutoff radius 2.895
  QMCHamiltonian::addOperator LocalECP to H, physical Hamiltonian 

  Using NonLocalECP potential 
    Maximum grid on a sphere for NonLocalECPotential: 12
  QMCHamiltonian::addOperator NonLocalECP to H, physical Hamiltonian 
QMCHamiltonian::addOperatorType added type pseudo named PseudoPot

  QMCHamiltonian::add2WalkerProperty added
    4 to P::PropertyList 
    0 to P::Collectables 
    starting Index of the observables in P::PropertyList = 9
ParticleSetPool::randomize 
<init source="ion0" target="e">
</init>
  Initialization Execution time = 0.651 secs
=========================================================
 Summary of QMC systems 
=========================================================
ParticleSetPool has: 

  ParticleSet 'e' contains 8 particles :  u(4) d(4)

    u  8.8540053974e-03  1.9685288513e+00 -1.0450905897e+00
    u  6.5220122961e-01  8.4211970212e-01 -3.4442685822e-01
    u  1.0060207244e+00  8.9791885372e-02 -2.5200337867e+00
    u  3.1416687068e+00  2.4329245348e-01  1.8660396565e+00
    d -6.3217302541e-01 -2.6132884472e+00 -3.7271797467e-01
    d  2.7027166850e+00 -6.0739951549e-01 -4.2288738248e+00
    d -4.5783904203e-01 -3.6471719641e+00  2.7402465813e-01
    d  5.0781183872e-01 -3.1095102520e-01  6.7337336365e-01

  Distance table for dissimilar particles (A-B):
    source: ion0  target: e
    Using structure-of-arrays (SoA) data layout
    Distance computations use open boundary conditions in 3D.

  Distance table for similar particles (A-A):
    source/target: e
    Using structure-of-arrays (SoA) data layout
    Distance computations use open boundary conditions in 3D.


  ParticleSet 'ion0' contains 1 particles :  Kr(1)

    Kr  0.0000000000e+00  0.0000000000e+00  0.0000000000e+00


  Hamiltonian h0
  Kinetic         Kinetic energy
  ElecElec        CoulombAB source=e

  LocalECP        LocalECPotential: ion0
  NonLocalECP     NonLocalECPotential: ion0


=========================================================
  Start VMC
  File Root Kr.log.s000 append = no 
=========================================================
  Adding 1 walkers to 0 existing sets
  Total number of walkers: 1.0240000000e+03
  Total weight: 1.0240000000e+03
  Resetting Properties of the walkers 1 x 13

<vmc function="put">
  qmc_counter=0  my_counter=0
  time step      = 1.5000000000e-01
  blocks         = 200
  steps          = 1
  substeps       = 5
  current        = 0
  target samples = 1.0240000000e+03
  walkers/mpi    = 1

  stepsbetweensamples = 200
<parameter name="blocks" condition="int">200</parameter>
<parameter name="blocks_between_recompute" condition="int">0</parameter>
<parameter name="check_properties" condition="int">100</parameter>
<parameter name="checkproperties" condition="int">100</parameter>
<parameter name="current" condition="int">0</parameter>
<parameter name="dmcwalkersperthread" condition="real">1.0000000000e+00</parameter>
<parameter name="maxcpusecs" condition="real">3.6000000000e+05</parameter>
<parameter name="record_configs" condition="int">0</parameter>
<parameter name="record_walkers" condition="int">200</parameter>
<parameter name="recordconfigs" condition="int">0</parameter>
<parameter name="recordwalkers" condition="int">200</parameter>
<parameter name="rewind" condition="int">0</parameter>
<parameter name="samples" condition="real">1.0240000000e+03</parameter>
<parameter name="samplesperthread" condition="real">1.0000000000e+00</parameter>
<parameter name="steps" condition="int">1</parameter>
<parameter name="stepsbetweensamples" condition="int">200</parameter>
<parameter name="store_configs" condition="int">0</parameter>
<parameter name="storeconfigs" condition="int">0</parameter>
<parameter name="sub_steps" condition="int">5</parameter>
<parameter name="substeps" condition="int">5</parameter>
<parameter name="tau" condition="au">1.5000000000e-01</parameter>
<parameter name="time_step" condition="au">1.5000000000e-01</parameter>
<parameter name="timestep" condition="au">1.5000000000e-01</parameter>
<parameter name="use_drift" condition="string">no</parameter>
<parameter name="usedrift" condition="string">no</parameter>
<parameter name="walkers" condition="int">1</parameter>
<parameter name="warmup_steps" condition="int">100</parameter>
<parameter name="warmupsteps" condition="int">100</parameter>
  DumpConfig==false Nothing (configurations, state) will be saved.
  Walker Samples are dumped every 200 steps.
</vmc>
  Set drift_modifier UNR parameter a = 1.0000000000e+00
  Initial partition of walkers 0 1 

  Using Particle by Particle moves
  Walker moves without drift
  Total Sample Size   =1024
  Walker distribution on root = 0 1 
  Using Locality Approximation
===== Memory Usage after the buffer registration =====
Available memory on node 0, free + buffers : 52838 MB
Memory footprint by rank 0 on node 0       : 575 MB
==================================================
  Anonymous Buffer size per walker : 2912 Bytes.
MEMORY increase 0 MB VMC::resetRun
====================================================
  SimpleFixedNodeBranch::finalize after a VMC block
    QMC counter        = 0
    time step          = 0.15
    reference energy   = -18.2612
    reference variance = 0.855071
====================================================
  QMC Execution time = 1.6621e+00 secs
Loop execution max-interations = 5

=========================================================
  Start QMCFixedSampleLinearOptimize
  File Root Kr.log.s001 append = no 
=========================================================
  Skip QMCDriver::putQMCInfo 
  Resetting Properties of the walkers 1 x 13

=========================================================
  Start VMC
  File Root Kr.log.s001 append = no 
=========================================================
  Using the current 1 walkers.
  Total number of walkers: 1.0240e+03
  Total weight: 1.0240e+03
  Resetting Properties of the walkers 1 x 13

<vmc function="put">
  qmc_counter=0  my_counter=0
  time step      = 1.5000e-01
  blocks         = 400
  steps          = 1
  substeps       = 5
  current        = 0
  target samples = 2.5600e+05
  walkers/mpi    = 1

  stepsbetweensamples = 1
<parameter name="blocks" condition="int">400</parameter>
<parameter name="blocks_between_recompute" condition="int">0</parameter>
<parameter name="check_properties" condition="int">100</parameter>
<parameter name="checkproperties" condition="int">100</parameter>
<parameter name="current" condition="int">0</parameter>
<parameter name="dmcwalkersperthread" condition="real">2.5000e+02</parameter>
<parameter name="maxcpusecs" condition="real">3.6000e+05</parameter>
<parameter name="record_configs" condition="int">0</parameter>
<parameter name="record_walkers" condition="int">1</parameter>
<parameter name="recordconfigs" condition="int">0</parameter>
<parameter name="recordwalkers" condition="int">1</parameter>
<parameter name="rewind" condition="int">0</parameter>
<parameter name="samples" condition="real">2.5600e+05</parameter>
<parameter name="samplesperthread" condition="real">2.5000e+02</parameter>
<parameter name="steps" condition="int">1</parameter>
<parameter name="stepsbetweensamples" condition="int">1</parameter>
<parameter name="store_configs" condition="int">0</parameter>
<parameter name="storeconfigs" condition="int">0</parameter>
<parameter name="sub_steps" condition="int">5</parameter>
<parameter name="substeps" condition="int">5</parameter>
<parameter name="tau" condition="au">1.5000e-01</parameter>
<parameter name="time_step" condition="au">1.5000e-01</parameter>
<parameter name="timestep" condition="au">1.5000e-01</parameter>
<parameter name="use_drift" condition="string">no</parameter>
<parameter name="usedrift" condition="string">no</parameter>
<parameter name="walkers" condition="int">1</parameter>
<parameter name="warmup_steps" condition="int">0</parameter>
<parameter name="warmupsteps" condition="int">0</parameter>
  DumpConfig==false Nothing (configurations, state) will be saved.
  Walker Samples are dumped every 1 steps.
</vmc>
    Restarting, cummulative properties:
      energy     = -1.8261e+01
      variance   = 0.0000e+00
      r2accepted = 1.0000e-10
      r2proposed = 1.0000e-10
  Set drift_modifier UNR parameter a = 1.0000e+00
 Using QMCCostFunction::QMCCostFunction
  Set drift_modifier UNR parameter a = 1.0000e+00
  EstimatorManagerBase::add replace LocalEnergy estimator.
<optimization-report>
<vmc stage="main" blocks="400">
  Cannot make clones again. Use existing 1 clones
  Initial partition of walkers 0 1 

  Using Particle by Particle moves
  Walker moves without drift
  Total Sample Size   =256000
  Walker distribution on root = 0 1 
  Using Locality Approximation
===== Memory Usage after the buffer registration =====
Available memory on node 0, free + buffers : 52825 MB
Memory footprint by rank 0 on node 0       : 576 MB
==================================================
  Anonymous Buffer size per walker : 2912 Bytes.
MEMORY increase 0 MB VMC::resetRun
====================================================
  SimpleFixedNodeBranch::finalize after a VMC block
    QMC counter        = 1
    time step          = 0.15
    reference energy   = -18.2547
    reference variance = 0.869196
====================================================
  Execution time = 1.9049e+00
</vmc>
<opt stage="setup">
  <log>
   Reading configurations from h5FileRoot Kr.log.s001
  QMCCostFunction is created with 1 threads.
  Using Nonlocal PP in Opt: NonLocalECP
   Number of samples loaded to each thread : 250 
  VMC Eavg = -1.8248e+01
  VMC Evar = 9.1860e-01
  Total weights = 2.5600e+05
  Execution time = 1.8307e-01
  </log>
</opt>
<opt stage="main" walkers="256000">
  <log>

*****************************************
Building overlap and Hamiltonian matrices
*****************************************

Among totally 30 optimized parameters, largest LM parameter change : 3.8725e-01 at parameter 20

******************************************************************************
Init Cost =   9.1860e-01    New Cost =   2.0089e-01  Delta Cost =  -7.1771e-01
******************************************************************************

The new set of parameters is valid. Updating the trial wave function!

*****************************************************************************
Applying the update for shift_i =   1.0000e-02     and shift_s =   2.5000e-01
*****************************************************************************
  Execution time = 2.5740e+00
  </log>
  <optVariables href="Kr.log.s001.opt.xml">
 uu_0                 1.969192e-01 1 1  ON 0
 uu_1                 8.396897e-02 1 1  ON 1
 uu_2                 3.839317e-03 1 1  ON 2
 uu_3                -3.807153e-02 1 1  ON 3
 uu_4                -6.132780e-02 1 1  ON 4
 uu_5                -6.735493e-02 1 1  ON 5
 uu_6                -6.093596e-02 1 1  ON 6
 uu_7                -4.000188e-02 1 1  ON 7
 uu_8                -1.540155e-02 1 1  ON 8
 uu_9                -1.392484e-03 1 1  ON 9
 ud_0                 3.609455e-01 1 1  ON 10
 ud_1                 1.141098e-01 1 1  ON 11
 ud_2                -4.430741e-03 1 1  ON 12
 ud_3                -5.106861e-02 1 1  ON 13
 ud_4                -8.091584e-02 1 1  ON 14
 ud_5                -9.420929e-02 1 1  ON 15
 ud_6                -9.427462e-02 1 1  ON 16
 ud_7                -7.638665e-02 1 1  ON 17
 ud_8                -4.515302e-02 1 1  ON 18
 ud_9                -1.959737e-02 1 1  ON 19
eKr_0                -3.872465e-01 1 1  ON 20
eKr_1                -3.280958e-01 1 1  ON 21
eKr_2                -9.615708e-02 1 1  ON 22
eKr_3                 1.147552e-01 1 1  ON 23
eKr_4                 2.353128e-01 1 1  ON 24
eKr_5                 2.594031e-01 1 1  ON 25
eKr_6                 1.681827e-01 1 1  ON 26
eKr_7                 4.138058e-02 1 1  ON 27
eKr_8                -3.869621e-03 1 1  ON 28
eKr_9                -3.126713e-03 1 1  ON 29
  </optVariables>
   Restore the number of walkers to 1, removing 0 walkers.
</opt>
</optimization-report>
  QMC Execution time = 2.583 secs
  Reusing QMCFixedSampleLinearOptimize
 Using QMCCostFunction::QMCCostFunction

=========================================================
  Start QMCFixedSampleLinearOptimize
  File Root Kr.log.s002 append = no 
=========================================================
  Skip QMCDriver::putQMCInfo 
  Resetting Properties of the walkers 1 x 13

=========================================================
  Start VMC
  File Root Kr.log.s002 append = no 
=========================================================
Using existing walkers 
  Resetting Properties of the walkers 1 x 13

<vmc function="put">
  qmc_counter=1  my_counter=1
  time step      = 1.5000e-01
  blocks         = 400
  steps          = 1
  substeps       = 5
  current        = 0
  target samples = 2.5600e+05
  walkers/mpi    = 1

  stepsbetweensamples = 1
<parameter name="blocks" condition="int">400</parameter>
<parameter name="blocks_between_recompute" condition="int">0</parameter>
<parameter name="check_properties" condition="int">100</parameter>
<parameter name="checkproperties" condition="int">100</parameter>
<parameter name="current" condition="int">0</parameter>
<parameter name="dmcwalkersperthread" condition="real">2.5000e+02</parameter>
<parameter name="maxcpusecs" condition="real">3.6000e+05</parameter>
<parameter name="record_configs" condition="int">0</parameter>
<parameter name="record_walkers" condition="int">1</parameter>
<parameter name="recordconfigs" condition="int">0</parameter>
<parameter name="recordwalkers" condition="int">1</parameter>
<parameter name="rewind" condition="int">0</parameter>
<parameter name="samples" condition="real">2.5600e+05</parameter>
<parameter name="samplesperthread" condition="real">2.5000e+02</parameter>
<parameter name="steps" condition="int">1</parameter>
<parameter name="stepsbetweensamples" condition="int">1</parameter>
<parameter name="store_configs" condition="int">0</parameter>
<parameter name="storeconfigs" condition="int">0</parameter>
<parameter name="sub_steps" condition="int">5</parameter>
<parameter name="substeps" condition="int">5</parameter>
<parameter name="tau" condition="au">1.5000e-01</parameter>
<parameter name="time_step" condition="au">1.5000e-01</parameter>
<parameter name="timestep" condition="au">1.5000e-01</parameter>
<parameter name="use_drift" condition="string">no</parameter>
<parameter name="usedrift" condition="string">no</parameter>
<parameter name="walkers" condition="int">1</parameter>
<parameter name="warmup_steps" condition="int">0</parameter>
<parameter name="warmupsteps" condition="int">0</parameter>
  DumpConfig==false Nothing (configurations, state) will be saved.
  Walker Samples are dumped every 1 steps.
</vmc>
  Set drift_modifier UNR parameter a = 1.0000e+00
  EstimatorManagerBase::add replace LocalEnergy estimator.
  Set drift_modifier UNR parameter a = 1.0000e+00
  EstimatorManagerBase::add replace LocalEnergy estimator.
<optimization-report>
<vmc stage="main" blocks="400">
  Cannot make clones again. Use existing 1 clones
  Initial partition of walkers 0 1 
  Using Particle by Particle moves
  Walker moves without drift
  Total Sample Size   =256000
  Walker distribution on root = 0 1 
  Using Locality Approximation
===== Memory Usage after the buffer registration =====
Available memory on node 0, free + buffers : 52821 MB
Memory footprint by rank 0 on node 0       : 577 MB
==================================================
====================================================
  SimpleFixedNodeBranch::finalize after a VMC block
    QMC counter        = 2
    time step          = 0.15
    reference energy   = -18.4137
    reference variance = 0.163456
====================================================
  Execution time = 3.3978e+00
</vmc>
<opt stage="setup">
  <log>
   Reading configurations from h5FileRoot Kr.log.s002
  QMCCostFunction is created with 1 threads.
  Using Nonlocal PP in Opt: NonLocalECP
   Number of samples loaded to each thread : 250 
  VMC Eavg = -1.8426e+01
  VMC Evar = 1.5567e-01
  Total weights = 2.5600e+05
  Execution time = 4.3781e-01
  </log>
</opt>
<opt stage="main" walkers="256000">
  <log>

*****************************************
Building overlap and Hamiltonian matrices
*****************************************

Among totally 30 optimized parameters, largest LM parameter change : 2.9165e-01 at parameter 20

******************************************************************************
Init Cost =   1.5567e-01    New Cost =   1.3267e-01  Delta Cost =  -2.3000e-02
******************************************************************************

The new set of parameters is valid. Updating the trial wave function!

*****************************************************************************
Applying the update for shift_i =   1.0000e-02     and shift_s =   6.2500e-02
*****************************************************************************
  Execution time = 4.4931e+00
  </log>
  <optVariables href="Kr.log.s002.opt.xml">
 uu_0                 2.998054e-01 1 1  ON 0
 uu_1                 1.317065e-01 1 1  ON 1
 uu_2                 1.642795e-02 1 1  ON 2
 uu_3                -5.334986e-02 1 1  ON 3
 uu_4                -9.590115e-02 1 1  ON 4
 uu_5                -1.129827e-01 1 1  ON 5
 uu_6                -1.031134e-01 1 1  ON 6
 uu_7                -6.737532e-02 1 1  ON 7
 uu_8                -2.052113e-02 1 1  ON 8
 uu_9                -3.325249e-04 1 1  ON 9
 ud_0                 5.113326e-01 1 1  ON 10
 ud_1                 1.912543e-01 1 1  ON 11
 ud_2                 2.545136e-02 1 1  ON 12
 ud_3                -5.864612e-02 1 1  ON 13
 ud_4                -1.138724e-01 1 1  ON 14
 ud_5                -1.457463e-01 1 1  ON 15
 ud_6                -1.531989e-01 1 1  ON 16
 ud_7                -1.301044e-01 1 1  ON 17
 ud_8                -8.070997e-02 1 1  ON 18
 ud_9                -3.275662e-02 1 1  ON 19
eKr_0                -6.788954e-01 1 1  ON 20
eKr_1                -5.580575e-01 1 1  ON 21
eKr_2                -1.967503e-01 1 1  ON 22
eKr_3                 1.588239e-01 1 1  ON 23
eKr_4                 3.887901e-01 1 1  ON 24
eKr_5                 4.630417e-01 1 1  ON 25
eKr_6                 3.363483e-01 1 1  ON 26
eKr_7                 9.627891e-02 1 1  ON 27
eKr_8                -2.585354e-03 1 1  ON 28
eKr_9                -6.003240e-03 1 1  ON 29
  </optVariables>
   Restore the number of walkers to 1, removing 0 walkers.
</opt>
</optimization-report>
  QMC Execution time = 4.502 secs
  Reusing QMCFixedSampleLinearOptimize
 Using QMCCostFunction::QMCCostFunction

=========================================================
  Start QMCFixedSampleLinearOptimize
  File Root Kr.log.s003 append = no 
=========================================================
  Skip QMCDriver::putQMCInfo 
  Resetting Properties of the walkers 1 x 13

=========================================================
  Start VMC
  File Root Kr.log.s003 append = no 
=========================================================
Using existing walkers 
  Resetting Properties of the walkers 1 x 13

<vmc function="put">
  qmc_counter=2  my_counter=2
  time step      = 1.5000e-01
  blocks         = 400
  steps          = 1
  substeps       = 5
  current        = 0
  target samples = 2.5600e+05
  walkers/mpi    = 1

  stepsbetweensamples = 1
<parameter name="blocks" condition="int">400</parameter>
<parameter name="blocks_between_recompute" condition="int">0</parameter>
<parameter name="check_properties" condition="int">100</parameter>
<parameter name="checkproperties" condition="int">100</parameter>
<parameter name="current" condition="int">0</parameter>
<parameter name="dmcwalkersperthread" condition="real">2.5000e+02</parameter>
<parameter name="maxcpusecs" condition="real">3.6000e+05</parameter>
<parameter name="record_configs" condition="int">0</parameter>
<parameter name="record_walkers" condition="int">1</parameter>
<parameter name="recordconfigs" condition="int">0</parameter>
<parameter name="recordwalkers" condition="int">1</parameter>
<parameter name="rewind" condition="int">0</parameter>
<parameter name="samples" condition="real">2.5600e+05</parameter>
<parameter name="samplesperthread" condition="real">2.5000e+02</parameter>
<parameter name="steps" condition="int">1</parameter>
<parameter name="stepsbetweensamples" condition="int">1</parameter>
<parameter name="store_configs" condition="int">0</parameter>
<parameter name="storeconfigs" condition="int">0</parameter>
<parameter name="sub_steps" condition="int">5</parameter>
<parameter name="substeps" condition="int">5</parameter>
<parameter name="tau" condition="au">1.5000e-01</parameter>
<parameter name="time_step" condition="au">1.5000e-01</parameter>
<parameter name="timestep" condition="au">1.5000e-01</parameter>
<parameter name="use_drift" condition="string">no</parameter>
<parameter name="usedrift" condition="string">no</parameter>
<parameter name="walkers" condition="int">1</parameter>
<parameter name="warmup_steps" condition="int">0</parameter>
<parameter name="warmupsteps" condition="int">0</parameter>
  DumpConfig==false Nothing (configurations, state) will be saved.
  Walker Samples are dumped every 1 steps.
</vmc>
  Set drift_modifier UNR parameter a = 1.0000e+00
  EstimatorManagerBase::add replace LocalEnergy estimator.
  Set drift_modifier UNR parameter a = 1.0000e+00
  EstimatorManagerBase::add replace LocalEnergy estimator.
<optimization-report>
<vmc stage="main" blocks="400">
  Cannot make clones again. Use existing 1 clones
  Initial partition of walkers 0 1 
  Using Particle by Particle moves
  Walker moves without drift
  Total Sample Size   =256000
  Walker distribution on root = 0 1 
  Using Locality Approximation
===== Memory Usage after the buffer registration =====
Available memory on node 0, free + buffers : 52819 MB
Memory footprint by rank 0 on node 0       : 580 MB
==================================================
====================================================
  SimpleFixedNodeBranch::finalize after a VMC block
    QMC counter        = 3
    time step          = 0.15
    reference energy   = -18.4566
    reference variance = 0.126165
====================================================
  Execution time = 3.6369e+00
</vmc>
<opt stage="setup">
  <log>
   Reading configurations from h5FileRoot Kr.log.s003
  QMCCostFunction is created with 1 threads.
  Using Nonlocal PP in Opt: NonLocalECP
   Number of samples loaded to each thread : 250 
  VMC Eavg = -1.8449e+01
  VMC Evar = 1.2200e-01
  Total weights = 2.5600e+05
  Execution time = 6.5072e-01
  </log>
</opt>
<opt stage="main" walkers="256000">
  <log>

*****************************************
Building overlap and Hamiltonian matrices
*****************************************

Among totally 30 optimized parameters, largest LM parameter change : 1.3997e-01 at parameter 20

******************************************************************************
Init Cost =   1.2200e-01    New Cost =   1.2596e-01  Delta Cost =   3.9586e-03
******************************************************************************

The new set of parameters is valid. Updating the trial wave function!

*****************************************************************************
Applying the update for shift_i =   1.0000e-02     and shift_s =   1.5625e-02
*****************************************************************************
  Execution time = 4.9851e+00
  </log>
  <optVariables href="Kr.log.s003.opt.xml">
 uu_0                 3.354729e-01 1 1  ON 0
 uu_1                 1.485623e-01 1 1  ON 1
 uu_2                 2.742538e-02 1 1  ON 2
 uu_3                -5.107059e-02 1 1  ON 3
 uu_4                -1.017468e-01 1 1  ON 4
 uu_5                -1.269972e-01 1 1  ON 5
 uu_6                -1.257728e-01 1 1  ON 6
 uu_7                -9.019920e-02 1 1  ON 7
 uu_8                -3.098724e-02 1 1  ON 8
 uu_9                 4.236569e-03 1 1  ON 9
 ud_0                 5.508822e-01 1 1  ON 10
 ud_1                 2.202873e-01 1 1  ON 11
 ud_2                 4.627868e-02 1 1  ON 12
 ud_3                -4.828977e-02 1 1  ON 13
 ud_4                -1.139933e-01 1 1  ON 14
 ud_5                -1.568275e-01 1 1  ON 15
 ud_6                -1.757074e-01 1 1  ON 16
 ud_7                -1.609530e-01 1 1  ON 17
 ud_8                -1.082847e-01 1 1  ON 18
 ud_9                -4.459114e-02 1 1  ON 19
eKr_0                -8.188660e-01 1 1  ON 20
eKr_1                -6.695979e-01 1 1  ON 21
eKr_2                -2.717674e-01 1 1  ON 22
eKr_3                 1.367726e-01 1 1  ON 23
eKr_4                 4.270132e-01 1 1  ON 24
eKr_5                 5.647185e-01 1 1  ON 25
eKr_6                 4.723324e-01 1 1  ON 26
eKr_7                 1.661052e-01 1 1  ON 27
eKr_8                 3.150190e-03 1 1  ON 28
eKr_9                -8.396240e-03 1 1  ON 29
  </optVariables>
   Restore the number of walkers to 1, removing 0 walkers.
</opt>
</optimization-report>
  QMC Execution time = 4.994 secs
  Reusing QMCFixedSampleLinearOptimize
 Using QMCCostFunction::QMCCostFunction

=========================================================
  Start QMCFixedSampleLinearOptimize
  File Root Kr.log.s004 append = no 
=========================================================
  Skip QMCDriver::putQMCInfo 
  Resetting Properties of the walkers 1 x 13

=========================================================
  Start VMC
  File Root Kr.log.s004 append = no 
=========================================================
Using existing walkers 
  Resetting Properties of the walkers 1 x 13

<vmc function="put">
  qmc_counter=3  my_counter=3
  time step      = 1.5000e-01
  blocks         = 400
  steps          = 1
  substeps       = 5
  current        = 0
  target samples = 2.5600e+05
  walkers/mpi    = 1

  stepsbetweensamples = 1
<parameter name="blocks" condition="int">400</parameter>
<parameter name="blocks_between_recompute" condition="int">0</parameter>
<parameter name="check_properties" condition="int">100</parameter>
<parameter name="checkproperties" condition="int">100</parameter>
<parameter name="current" condition="int">0</parameter>
<parameter name="dmcwalkersperthread" condition="real">2.5000e+02</parameter>
<parameter name="maxcpusecs" condition="real">3.6000e+05</parameter>
<parameter name="record_configs" condition="int">0</parameter>
<parameter name="record_walkers" condition="int">1</parameter>
<parameter name="recordconfigs" condition="int">0</parameter>
<parameter name="recordwalkers" condition="int">1</parameter>
<parameter name="rewind" condition="int">0</parameter>
<parameter name="samples" condition="real">2.5600e+05</parameter>
<parameter name="samplesperthread" condition="real">2.5000e+02</parameter>
<parameter name="steps" condition="int">1</parameter>
<parameter name="stepsbetweensamples" condition="int">1</parameter>
<parameter name="store_configs" condition="int">0</parameter>
<parameter name="storeconfigs" condition="int">0</parameter>
<parameter name="sub_steps" condition="int">5</parameter>
<parameter name="substeps" condition="int">5</parameter>
<parameter name="tau" condition="au">1.5000e-01</parameter>
<parameter name="time_step" condition="au">1.5000e-01</parameter>
<parameter name="timestep" condition="au">1.5000e-01</parameter>
<parameter name="use_drift" condition="string">no</parameter>
<parameter name="usedrift" condition="string">no</parameter>
<parameter name="walkers" condition="int">1</parameter>
<parameter name="warmup_steps" condition="int">0</parameter>
<parameter name="warmupsteps" condition="int">0</parameter>
  DumpConfig==false Nothing (configurations, state) will be saved.
  Walker Samples are dumped every 1 steps.
</vmc>
  Set drift_modifier UNR parameter a = 1.0000e+00
  EstimatorManagerBase::add replace LocalEnergy estimator.
  Set drift_modifier UNR parameter a = 1.0000e+00
  EstimatorManagerBase::add replace LocalEnergy estimator.
<optimization-report>
<vmc stage="main" blocks="400">
  Cannot make clones again. Use existing 1 clones
  Initial partition of walkers 0 1 
  Using Particle by Particle moves
  Walker moves without drift
  Total Sample Size   =256000
  Walker distribution on root = 0 1 
  Using Locality Approximation
===== Memory Usage after the buffer registration =====
Available memory on node 0, free + buffers : 52815 MB
Memory footprint by rank 0 on node 0       : 583 MB
==================================================
====================================================
  SimpleFixedNodeBranch::finalize after a VMC block
    QMC counter        = 4
    time step          = 0.15
    reference energy   = -18.4658
    reference variance = 0.129691
====================================================
  Execution time = 3.5883e+00
</vmc>
<opt stage="setup">
  <log>
   Reading configurations from h5FileRoot Kr.log.s004
  QMCCostFunction is created with 1 threads.
  Using Nonlocal PP in Opt: NonLocalECP
   Number of samples loaded to each thread : 250 
  VMC Eavg = -1.8452e+01
  VMC Evar = 1.2941e-01
  Total weights = 2.5600e+05
  Execution time = 6.8421e-01
  </log>
</opt>
<opt stage="main" walkers="256000">
  <log>

*****************************************
Building overlap and Hamiltonian matrices
*****************************************

Among totally 30 optimized parameters, largest LM parameter change : 1.0134e-01 at parameter 26

******************************************************************************
Init Cost =   1.2941e-01    New Cost =   1.3022e-01  Delta Cost =   8.0293e-04
******************************************************************************

The new set of parameters is valid. Updating the trial wave function!

*****************************************************************************
Applying the update for shift_i =   1.0000e-02     and shift_s =   3.9062e-03
*****************************************************************************
  Execution time = 4.9768e+00
  </log>
  <optVariables href="Kr.log.s004.opt.xml">
 uu_0                 3.502071e-01 1 1  ON 0
 uu_1                 1.572708e-01 1 1  ON 1
 uu_2                 3.470897e-02 1 1  ON 2
 uu_3                -4.666210e-02 1 1  ON 3
 uu_4                -1.003928e-01 1 1  ON 4
 uu_5                -1.296356e-01 1 1  ON 5
 uu_6                -1.347691e-01 1 1  ON 6
 uu_7                -1.074400e-01 1 1  ON 7
 uu_8                -4.397345e-02 1 1  ON 8
 uu_9                 6.432092e-03 1 1  ON 9
 ud_0                 5.659290e-01 1 1  ON 10
 ud_1                 2.337212e-01 1 1  ON 11
 ud_2                 5.764985e-02 1 1  ON 12
 ud_3                -3.996946e-02 1 1  ON 13
 ud_4                -1.089040e-01 1 1  ON 14
 ud_5                -1.569011e-01 1 1  ON 15
 ud_6                -1.837512e-01 1 1  ON 16
 ud_7                -1.747733e-01 1 1  ON 17
 ud_8                -1.270774e-01 1 1  ON 18
 ud_9                -5.666055e-02 1 1  ON 19
eKr_0                -8.957388e-01 1 1  ON 20
eKr_1                -7.336654e-01 1 1  ON 21
eKr_2                -3.242062e-01 1 1  ON 22
eKr_3                 1.046448e-01 1 1  ON 23
eKr_4                 4.206829e-01 1 1  ON 24
eKr_5                 6.039604e-01 1 1  ON 25
eKr_6                 5.736679e-01 1 1  ON 26
eKr_7                 2.466146e-01 1 1  ON 27
eKr_8                 1.643348e-02 1 1  ON 28
eKr_9                -1.020131e-02 1 1  ON 29
  </optVariables>
   Restore the number of walkers to 1, removing 0 walkers.
</opt>
</optimization-report>
  QMC Execution time = 4.986 secs
  Reusing QMCFixedSampleLinearOptimize
 Using QMCCostFunction::QMCCostFunction

=========================================================
  Start QMCFixedSampleLinearOptimize
  File Root Kr.log.s005 append = no 
=========================================================
  Skip QMCDriver::putQMCInfo 
  Resetting Properties of the walkers 1 x 13

=========================================================
  Start VMC
  File Root Kr.log.s005 append = no 
=========================================================
Using existing walkers 
  Resetting Properties of the walkers 1 x 13

<vmc function="put">
  qmc_counter=4  my_counter=4
  time step      = 1.5000e-01
  blocks         = 400
  steps          = 1
  substeps       = 5
  current        = 0
  target samples = 2.5600e+05
  walkers/mpi    = 1

  stepsbetweensamples = 1
<parameter name="blocks" condition="int">400</parameter>
<parameter name="blocks_between_recompute" condition="int">0</parameter>
<parameter name="check_properties" condition="int">100</parameter>
<parameter name="checkproperties" condition="int">100</parameter>
<parameter name="current" condition="int">0</parameter>
<parameter name="dmcwalkersperthread" condition="real">2.5000e+02</parameter>
<parameter name="maxcpusecs" condition="real">3.6000e+05</parameter>
<parameter name="record_configs" condition="int">0</parameter>
<parameter name="record_walkers" condition="int">1</parameter>
<parameter name="recordconfigs" condition="int">0</parameter>
<parameter name="recordwalkers" condition="int">1</parameter>
<parameter name="rewind" condition="int">0</parameter>
<parameter name="samples" condition="real">2.5600e+05</parameter>
<parameter name="samplesperthread" condition="real">2.5000e+02</parameter>
<parameter name="steps" condition="int">1</parameter>
<parameter name="stepsbetweensamples" condition="int">1</parameter>
<parameter name="store_configs" condition="int">0</parameter>
<parameter name="storeconfigs" condition="int">0</parameter>
<parameter name="sub_steps" condition="int">5</parameter>
<parameter name="substeps" condition="int">5</parameter>
<parameter name="tau" condition="au">1.5000e-01</parameter>
<parameter name="time_step" condition="au">1.5000e-01</parameter>
<parameter name="timestep" condition="au">1.5000e-01</parameter>
<parameter name="use_drift" condition="string">no</parameter>
<parameter name="usedrift" condition="string">no</parameter>
<parameter name="walkers" condition="int">1</parameter>
<parameter name="warmup_steps" condition="int">0</parameter>
<parameter name="warmupsteps" condition="int">0</parameter>
  DumpConfig==false Nothing (configurations, state) will be saved.
  Walker Samples are dumped every 1 steps.
</vmc>
  Set drift_modifier UNR parameter a = 1.0000e+00
  EstimatorManagerBase::add replace LocalEnergy estimator.
  Set drift_modifier UNR parameter a = 1.0000e+00
  EstimatorManagerBase::add replace LocalEnergy estimator.
<optimization-report>
<vmc stage="main" blocks="400">
  Cannot make clones again. Use existing 1 clones
  Initial partition of walkers 0 1 
  Using Particle by Particle moves
  Walker moves without drift
  Total Sample Size   =256000
  Walker distribution on root = 0 1 
  Using Locality Approximation
===== Memory Usage after the buffer registration =====
Available memory on node 0, free + buffers : 52812 MB
Memory footprint by rank 0 on node 0       : 585 MB
==================================================
====================================================
  SimpleFixedNodeBranch::finalize after a VMC block
    QMC counter        = 5
    time step          = 0.15
    reference energy   = -18.4672
    reference variance = 0.103222
====================================================
  Execution time = 3.5762e+00
</vmc>
<opt stage="setup">
  <log>
   Reading configurations from h5FileRoot Kr.log.s005
  QMCCostFunction is created with 1 threads.
  Using Nonlocal PP in Opt: NonLocalECP
   Number of samples loaded to each thread : 250 
  VMC Eavg = -1.8452e+01
  VMC Evar = 1.2812e-01
  Total weights = 2.5600e+05
  Execution time = 7.1810e-01
  </log>
</opt>
<opt stage="main" walkers="256000">
  <log>

*****************************************
Building overlap and Hamiltonian matrices
*****************************************

Among totally 30 optimized parameters, largest LM parameter change : 6.8570e-02 at parameter 27

******************************************************************************
Init Cost =   1.2812e-01    New Cost =   1.2756e-01  Delta Cost =  -5.6079e-04
******************************************************************************

The new set of parameters is valid. Updating the trial wave function!

*****************************************************************************
Applying the update for shift_i =   1.0000e-02     and shift_s =   3.9062e-03
*****************************************************************************
  Execution time = 5.0104e+00
  </log>
  <optVariables href="Kr.log.s005.opt.xml">
 uu_0                 3.577248e-01 1 1  ON 0
 uu_1                 1.642512e-01 1 1  ON 1
 uu_2                 4.115958e-02 1 1  ON 2
 uu_3                -4.071108e-02 1 1  ON 3
 uu_4                -9.664095e-02 1 1  ON 4
 uu_5                -1.295552e-01 1 1  ON 5
 uu_6                -1.384647e-01 1 1  ON 6
 uu_7                -1.164584e-01 1 1  ON 7
 uu_8                -5.652201e-02 1 1  ON 8
 uu_9                 1.557874e-03 1 1  ON 9
 ud_0                 5.733794e-01 1 1  ON 10
 ud_1                 2.419162e-01 1 1  ON 11
 ud_2                 6.576243e-02 1 1  ON 12
 ud_3                -3.247969e-02 1 1  ON 13
 ud_4                -1.033700e-01 1 1  ON 14
 ud_5                -1.543987e-01 1 1  ON 15
 ud_6                -1.847374e-01 1 1  ON 16
 ud_7                -1.838974e-01 1 1  ON 17
 ud_8                -1.424028e-01 1 1  ON 18
 ud_9                -6.810824e-02 1 1  ON 19
eKr_0                -9.395036e-01 1 1  ON 20
eKr_1                -7.746180e-01 1 1  ON 21
eKr_2                -3.607191e-01 1 1  ON 22
eKr_3                 7.927674e-02 1 1  ON 23
eKr_4                 4.126031e-01 1 1  ON 24
eKr_5                 6.206635e-01 1 1  ON 25
eKr_6                 6.318484e-01 1 1  ON 26
eKr_7                 3.151851e-01 1 1  ON 27
eKr_8                 3.043122e-02 1 1  ON 28
eKr_9                -1.253039e-02 1 1  ON 29
  </optVariables>
   Restore the number of walkers to 1, removing 0 walkers.
</opt>
</optimization-report>
  QMC Execution time = 5.019 secs
Loop execution max-interations = 5
  Reusing QMCFixedSampleLinearOptimize
 Using QMCCostFunction::QMCCostFunction

=========================================================
  Start QMCFixedSampleLinearOptimize
  File Root Kr.log.s006 append = no 
=========================================================
  Skip QMCDriver::putQMCInfo 
  Resetting Properties of the walkers 1 x 13

=========================================================
  Start VMC
  File Root Kr.log.s006 append = no 
=========================================================
  Using the current 1 walkers.
  Total number of walkers: 1.0240e+03
  Total weight: 1.0240e+03
  Resetting Properties of the walkers 1 x 13

<vmc function="put">
  qmc_counter=0  my_counter=5
  time step      = 1.5000e-01
  blocks         = 400
  steps          = 1
  substeps       = 5
  current        = 0
  target samples = 2.5600e+05
  walkers/mpi    = 1

  stepsbetweensamples = 1
<parameter name="blocks" condition="int">400</parameter>
<parameter name="blocks_between_recompute" condition="int">0</parameter>
<parameter name="check_properties" condition="int">100</parameter>
<parameter name="checkproperties" condition="int">100</parameter>
<parameter name="current" condition="int">0</parameter>
<parameter name="dmcwalkersperthread" condition="real">2.5000e+02</parameter>
<parameter name="maxcpusecs" condition="real">3.6000e+05</parameter>
<parameter name="record_configs" condition="int">0</parameter>
<parameter name="record_walkers" condition="int">1</parameter>
<parameter name="recordconfigs" condition="int">0</parameter>
<parameter name="recordwalkers" condition="int">1</parameter>
<parameter name="rewind" condition="int">0</parameter>
<parameter name="samples" condition="real">2.5600e+05</parameter>
<parameter name="samplesperthread" condition="real">2.5000e+02</parameter>
<parameter name="steps" condition="int">1</parameter>
<parameter name="stepsbetweensamples" condition="int">1</parameter>
<parameter name="store_configs" condition="int">0</parameter>
<parameter name="storeconfigs" condition="int">0</parameter>
<parameter name="sub_steps" condition="int">5</parameter>
<parameter name="substeps" condition="int">5</parameter>
<parameter name="tau" condition="au">1.5000e-01</parameter>
<parameter name="time_step" condition="au">1.5000e-01</parameter>
<parameter name="timestep" condition="au">1.5000e-01</parameter>
<parameter name="use_drift" condition="string">no</parameter>
<parameter name="usedrift" condition="string">no</parameter>
<parameter name="walkers" condition="int">1</parameter>
<parameter name="warmup_steps" condition="int">0</parameter>
<parameter name="warmupsteps" condition="int">0</parameter>
  DumpConfig==false Nothing (configurations, state) will be saved.
  Walker Samples are dumped every 1 steps.
</vmc>
  Set drift_modifier UNR parameter a = 1.0000e+00
  EstimatorManagerBase::add replace LocalEnergy estimator.
  Set drift_modifier UNR parameter a = 1.0000e+00
  EstimatorManagerBase::add replace LocalEnergy estimator.
<optimization-report>
<vmc stage="main" blocks="400">
  Cannot make clones again. Use existing 1 clones
  Initial partition of walkers 0 1 
  Using Particle by Particle moves
  Walker moves without drift
  Total Sample Size   =256000
  Walker distribution on root = 0 1 
  Using Locality Approximation
===== Memory Usage after the buffer registration =====
Available memory on node 0, free + buffers : 52810 MB
Memory footprint by rank 0 on node 0       : 588 MB
==================================================
====================================================
  SimpleFixedNodeBranch::finalize after a VMC block
    QMC counter        = 6
    time step          = 0.15
    reference energy   = -18.4595
    reference variance = 0.144058
====================================================
  Execution time = 3.5761e+00
</vmc>
<opt stage="setup">
  <log>
   Reading configurations from h5FileRoot Kr.log.s006
  QMCCostFunction is created with 1 threads.
  Using Nonlocal PP in Opt: NonLocalECP
   Number of samples loaded to each thread : 250 
  VMC Eavg = -1.8453e+01
  VMC Evar = 1.2819e-01
  Total weights = 2.5600e+05
  Execution time = 7.1969e-01
  </log>
</opt>
<opt stage="main" walkers="256000">
  <log>

*****************************************
Building overlap and Hamiltonian matrices
*****************************************

Among totally 30 optimized parameters, largest LM parameter change : 7.0121e-02 at parameter 27

******************************************************************************
Init Cost =   1.2819e-01    New Cost =   1.2838e-01  Delta Cost =   1.8961e-04
******************************************************************************

The new set of parameters is valid. Updating the trial wave function!

*****************************************************************************
Applying the update for shift_i =   1.0000e-02     and shift_s =   3.9062e-03
*****************************************************************************
  Execution time = 5.0082e+00
  </log>
  <optVariables href="Kr.log.s006.opt.xml">
 uu_0                 3.634502e-01 1 1  ON 0
 uu_1                 1.704801e-01 1 1  ON 1
 uu_2                 4.744167e-02 1 1  ON 2
 uu_3                -3.561169e-02 1 1  ON 3
 uu_4                -9.214134e-02 1 1  ON 4
 uu_5                -1.261786e-01 1 1  ON 5
 uu_6                -1.401065e-01 1 1  ON 6
 uu_7                -1.242397e-01 1 1  ON 7
 uu_8                -7.318924e-02 1 1  ON 8
 uu_9                -3.361976e-03 1 1  ON 9
 ud_0                 5.803724e-01 1 1  ON 10
 ud_1                 2.481198e-01 1 1  ON 11
 ud_2                 7.156643e-02 1 1  ON 12
 ud_3                -2.827653e-02 1 1  ON 13
 ud_4                -9.999242e-02 1 1  ON 14
 ud_5                -1.524585e-01 1 1  ON 15
 ud_6                -1.852584e-01 1 1  ON 16
 ud_7                -1.897937e-01 1 1  ON 17
 ud_8                -1.506935e-01 1 1  ON 18
 ud_9                -7.471243e-02 1 1  ON 19
eKr_0                -9.765620e-01 1 1  ON 20
eKr_1                -8.093664e-01 1 1  ON 21
eKr_2                -3.909166e-01 1 1  ON 22
eKr_3                 5.608042e-02 1 1  ON 23
eKr_4                 4.014202e-01 1 1  ON 24
eKr_5                 6.276567e-01 1 1  ON 25
eKr_6                 6.735814e-01 1 1  ON 26
eKr_7                 3.853062e-01 1 1  ON 27
eKr_8                 5.134020e-02 1 1  ON 28
eKr_9                -1.395253e-02 1 1  ON 29
  </optVariables>
   Restore the number of walkers to 1, removing 0 walkers.
</opt>
</optimization-report>
  QMC Execution time = 5.017 secs
  Reusing QMCFixedSampleLinearOptimize
 Using QMCCostFunction::QMCCostFunction

=========================================================
  Start QMCFixedSampleLinearOptimize
  File Root Kr.log.s007 append = no 
=========================================================
  Skip QMCDriver::putQMCInfo 
  Resetting Properties of the walkers 1 x 13

=========================================================
  Start VMC
  File Root Kr.log.s007 append = no 
=========================================================
Using existing walkers 
  Resetting Properties of the walkers 1 x 13

<vmc function="put">
  qmc_counter=1  my_counter=6
  time step      = 1.5000e-01
  blocks         = 400
  steps          = 1
  substeps       = 5
  current        = 0
  target samples = 2.5600e+05
  walkers/mpi    = 1

  stepsbetweensamples = 1
<parameter name="blocks" condition="int">400</parameter>
<parameter name="blocks_between_recompute" condition="int">0</parameter>
<parameter name="check_properties" condition="int">100</parameter>
<parameter name="checkproperties" condition="int">100</parameter>
<parameter name="current" condition="int">0</parameter>
<parameter name="dmcwalkersperthread" condition="real">2.5000e+02</parameter>
<parameter name="maxcpusecs" condition="real">3.6000e+05</parameter>
<parameter name="record_configs" condition="int">0</parameter>
<parameter name="record_walkers" condition="int">1</parameter>
<parameter name="recordconfigs" condition="int">0</parameter>
<parameter name="recordwalkers" condition="int">1</parameter>
<parameter name="rewind" condition="int">0</parameter>
<parameter name="samples" condition="real">2.5600e+05</parameter>
<parameter name="samplesperthread" condition="real">2.5000e+02</parameter>
<parameter name="steps" condition="int">1</parameter>
<parameter name="stepsbetweensamples" condition="int">1</parameter>
<parameter name="store_configs" condition="int">0</parameter>
<parameter name="storeconfigs" condition="int">0</parameter>
<parameter name="sub_steps" condition="int">5</parameter>
<parameter name="substeps" condition="int">5</parameter>
<parameter name="tau" condition="au">1.5000e-01</parameter>
<parameter name="time_step" condition="au">1.5000e-01</parameter>
<parameter name="timestep" condition="au">1.5000e-01</parameter>
<parameter name="use_drift" condition="string">no</parameter>
<parameter name="usedrift" condition="string">no</parameter>
<parameter name="walkers" condition="int">1</parameter>
<parameter name="warmup_steps" condition="int">0</parameter>
<parameter name="warmupsteps" condition="int">0</parameter>
  DumpConfig==false Nothing (configurations, state) will be saved.
  Walker Samples are dumped every 1 steps.
</vmc>
  Set drift_modifier UNR parameter a = 1.0000e+00
  EstimatorManagerBase::add replace LocalEnergy estimator.
  Set drift_modifier UNR parameter a = 1.0000e+00
  EstimatorManagerBase::add replace LocalEnergy estimator.
<optimization-report>
<vmc stage="main" blocks="400">
  Cannot make clones again. Use existing 1 clones
  Initial partition of walkers 0 1 
  Using Particle by Particle moves
  Walker moves without drift
  Total Sample Size   =256000
  Walker distribution on root = 0 1 
  Using Locality Approximation
===== Memory Usage after the buffer registration =====
Available memory on node 0, free + buffers : 52807 MB
Memory footprint by rank 0 on node 0       : 591 MB
==================================================
====================================================
  SimpleFixedNodeBranch::finalize after a VMC block
    QMC counter        = 7
    time step          = 0.15
    reference energy   = -18.4418
    reference variance = 0.122855
====================================================
  Execution time = 3.5765e+00
</vmc>
<opt stage="setup">
  <log>
   Reading configurations from h5FileRoot Kr.log.s007
  QMCCostFunction is created with 1 threads.
  Using Nonlocal PP in Opt: NonLocalECP
   Number of samples loaded to each thread : 250 
  VMC Eavg = -1.8454e+01
  VMC Evar = 1.2508e-01
  Total weights = 2.5600e+05
  Execution time = 7.1232e-01
  </log>
</opt>
<opt stage="main" walkers="256000">
  <log>

*****************************************
Building overlap and Hamiltonian matrices
*****************************************

Among totally 30 optimized parameters, largest LM parameter change : 5.5987e-02 at parameter 27

******************************************************************************
Init Cost =   1.2508e-01    New Cost =   1.2553e-01  Delta Cost =   4.5095e-04
******************************************************************************

The new set of parameters is valid. Updating the trial wave function!

*****************************************************************************
Applying the update for shift_i =   1.0000e-02     and shift_s =   3.9062e-03
*****************************************************************************
  Execution time = 5.0025e+00
  </log>
  <optVariables href="Kr.log.s007.opt.xml">
 uu_0                 3.690057e-01 1 1  ON 0
 uu_1                 1.737585e-01 1 1  ON 1
 uu_2                 4.975914e-02 1 1  ON 2
 uu_3                -3.401099e-02 1 1  ON 3
 uu_4                -9.156441e-02 1 1  ON 4
 uu_5                -1.277771e-01 1 1  ON 5
 uu_6                -1.430435e-01 1 1  ON 6
 uu_7                -1.297674e-01 1 1  ON 7
 uu_8                -7.690808e-02 1 1  ON 8
 uu_9                -6.007349e-03 1 1  ON 9
 ud_0                 5.862979e-01 1 1  ON 10
 ud_1                 2.541041e-01 1 1  ON 11
 ud_2                 7.683270e-02 1 1  ON 12
 ud_3                -2.286592e-02 1 1  ON 13
 ud_4                -9.574867e-02 1 1  ON 14
 ud_5                -1.494952e-01 1 1  ON 15
 ud_6                -1.847220e-01 1 1  ON 16
 ud_7                -1.927554e-01 1 1  ON 17
 ud_8                -1.596052e-01 1 1  ON 18
 ud_9                -8.326944e-02 1 1  ON 19
eKr_0                -1.002204e+00 1 1  ON 20
eKr_1                -8.331790e-01 1 1  ON 21
eKr_2                -4.116224e-01 1 1  ON 22
eKr_3                 3.973303e-02 1 1  ON 23
eKr_4                 3.926455e-01 1 1  ON 24
eKr_5                 6.282134e-01 1 1  ON 25
eKr_6                 6.938231e-01 1 1  ON 26
eKr_7                 4.412933e-01 1 1  ON 27
eKr_8                 7.213600e-02 1 1  ON 28
eKr_9                -1.347884e-02 1 1  ON 29
  </optVariables>
   Restore the number of walkers to 1, removing 0 walkers.
</opt>
</optimization-report>
  QMC Execution time = 5.012 secs
  Reusing QMCFixedSampleLinearOptimize
 Using QMCCostFunction::QMCCostFunction

=========================================================
  Start QMCFixedSampleLinearOptimize
  File Root Kr.log.s008 append = no 
=========================================================
  Skip QMCDriver::putQMCInfo 
  Resetting Properties of the walkers 1 x 13

=========================================================
  Start VMC
  File Root Kr.log.s008 append = no 
=========================================================
Using existing walkers 
  Resetting Properties of the walkers 1 x 13

<vmc function="put">
  qmc_counter=2  my_counter=7
  time step      = 1.5000e-01
  blocks         = 400
  steps          = 1
  substeps       = 5
  current        = 0
  target samples = 2.5600e+05
  walkers/mpi    = 1

  stepsbetweensamples = 1
<parameter name="blocks" condition="int">400</parameter>
<parameter name="blocks_between_recompute" condition="int">0</parameter>
<parameter name="check_properties" condition="int">100</parameter>
<parameter name="checkproperties" condition="int">100</parameter>
<parameter name="current" condition="int">0</parameter>
<parameter name="dmcwalkersperthread" condition="real">2.5000e+02</parameter>
<parameter name="maxcpusecs" condition="real">3.6000e+05</parameter>
<parameter name="record_configs" condition="int">0</parameter>
<parameter name="record_walkers" condition="int">1</parameter>
<parameter name="recordconfigs" condition="int">0</parameter>
<parameter name="recordwalkers" condition="int">1</parameter>
<parameter name="rewind" condition="int">0</parameter>
<parameter name="samples" condition="real">2.5600e+05</parameter>
<parameter name="samplesperthread" condition="real">2.5000e+02</parameter>
<parameter name="steps" condition="int">1</parameter>
<parameter name="stepsbetweensamples" condition="int">1</parameter>
<parameter name="store_configs" condition="int">0</parameter>
<parameter name="storeconfigs" condition="int">0</parameter>
<parameter name="sub_steps" condition="int">5</parameter>
<parameter name="substeps" condition="int">5</parameter>
<parameter name="tau" condition="au">1.5000e-01</parameter>
<parameter name="time_step" condition="au">1.5000e-01</parameter>
<parameter name="timestep" condition="au">1.5000e-01</parameter>
<parameter name="use_drift" condition="string">no</parameter>
<parameter name="usedrift" condition="string">no</parameter>
<parameter name="walkers" condition="int">1</parameter>
<parameter name="warmup_steps" condition="int">0</parameter>
<parameter name="warmupsteps" condition="int">0</parameter>
  DumpConfig==false Nothing (configurations, state) will be saved.
  Walker Samples are dumped every 1 steps.
</vmc>
  Set drift_modifier UNR parameter a = 1.0000e+00
  EstimatorManagerBase::add replace LocalEnergy estimator.
  Set drift_modifier UNR parameter a = 1.0000e+00
  EstimatorManagerBase::add replace LocalEnergy estimator.
<optimization-report>
<vmc stage="main" blocks="400">
  Cannot make clones again. Use existing 1 clones
  Initial partition of walkers 0 1 
  Using Particle by Particle moves
  Walker moves without drift
  Total Sample Size   =256000
  Walker distribution on root = 0 1 
  Using Locality Approximation
===== Memory Usage after the buffer registration =====
Available memory on node 0, free + buffers : 52802 MB
Memory footprint by rank 0 on node 0       : 593 MB
==================================================
====================================================
  SimpleFixedNodeBranch::finalize after a VMC block
    QMC counter        = 8
    time step          = 0.15
    reference energy   = -18.4701
    reference variance = 0.119926
====================================================
  Execution time = 3.5867e+00
</vmc>
<opt stage="setup">
  <log>
   Reading configurations from h5FileRoot Kr.log.s008
  QMCCostFunction is created with 1 threads.
  Using Nonlocal PP in Opt: NonLocalECP
   Number of samples loaded to each thread : 250 
  VMC Eavg = -1.8456e+01
  VMC Evar = 1.3527e-01
  Total weights = 2.5600e+05
  Execution time = 7.2171e-01
  </log>
</opt>
<opt stage="main" walkers="256000">
  <log>

*****************************************
Building overlap and Hamiltonian matrices
*****************************************

Among totally 30 optimized parameters, largest LM parameter change : 5.1807e-02 at parameter 27

******************************************************************************
Init Cost =   1.3527e-01    New Cost =   1.3519e-01  Delta Cost =  -8.3891e-05
******************************************************************************

The new set of parameters is valid. Updating the trial wave function!

*****************************************************************************
Applying the update for shift_i =   1.0000e-02     and shift_s =   3.9062e-03
*****************************************************************************
  Execution time = 5.0194e+00
  </log>
  <optVariables href="Kr.log.s008.opt.xml">
 uu_0                 3.686079e-01 1 1  ON 0
 uu_1                 1.742974e-01 1 1  ON 1
 uu_2                 5.035266e-02 1 1  ON 2
 uu_3                -3.352267e-02 1 1  ON 3
 uu_4                -9.097027e-02 1 1  ON 4
 uu_5                -1.274620e-01 1 1  ON 5
 uu_6                -1.440953e-01 1 1  ON 6
 uu_7                -1.337761e-01 1 1  ON 7
 uu_8                -8.199826e-02 1 1  ON 8
 uu_9                -4.628064e-03 1 1  ON 9
 ud_0                 5.891831e-01 1 1  ON 10
 ud_1                 2.556556e-01 1 1  ON 11
 ud_2                 7.889472e-02 1 1  ON 12
 ud_3                -2.157715e-02 1 1  ON 13
 ud_4                -9.478448e-02 1 1  ON 14
 ud_5                -1.494888e-01 1 1  ON 15
 ud_6                -1.855444e-01 1 1  ON 16
 ud_7                -1.940905e-01 1 1  ON 17
 ud_8                -1.625746e-01 1 1  ON 18
 ud_9                -8.610380e-02 1 1  ON 19
eKr_0                -1.024703e+00 1 1  ON 20
eKr_1                -8.527060e-01 1 1  ON 21
eKr_2                -4.306874e-01 1 1  ON 22
eKr_3                 2.256991e-02 1 1  ON 23
eKr_4                 3.784632e-01 1 1  ON 24
eKr_5                 6.271512e-01 1 1  ON 25
eKr_6                 7.087189e-01 1 1  ON 26
eKr_7                 4.930999e-01 1 1  ON 27
eKr_8                 9.902202e-02 1 1  ON 28
eKr_9                -1.228446e-02 1 1  ON 29
  </optVariables>
   Restore the number of walkers to 1, removing 0 walkers.
</opt>
</optimization-report>
  QMC Execution time = 5.028 secs
  Reusing QMCFixedSampleLinearOptimize
 Using QMCCostFunction::QMCCostFunction

=========================================================
  Start QMCFixedSampleLinearOptimize
  File Root Kr.log.s009 append = no 
=========================================================
  Skip QMCDriver::putQMCInfo 
  Resetting Properties of the walkers 1 x 13

=========================================================
  Start VMC
  File Root Kr.log.s009 append = no 
=========================================================
Using existing walkers 
  Resetting Properties of the walkers 1 x 13

<vmc function="put">
  qmc_counter=3  my_counter=8
  time step      = 1.5000e-01
  blocks         = 400
  steps          = 1
  substeps       = 5
  current        = 0
  target samples = 2.5600e+05
  walkers/mpi    = 1

  stepsbetweensamples = 1
<parameter name="blocks" condition="int">400</parameter>
<parameter name="blocks_between_recompute" condition="int">0</parameter>
<parameter name="check_properties" condition="int">100</parameter>
<parameter name="checkproperties" condition="int">100</parameter>
<parameter name="current" condition="int">0</parameter>
<parameter name="dmcwalkersperthread" condition="real">2.5000e+02</parameter>
<parameter name="maxcpusecs" condition="real">3.6000e+05</parameter>
<parameter name="record_configs" condition="int">0</parameter>
<parameter name="record_walkers" condition="int">1</parameter>
<parameter name="recordconfigs" condition="int">0</parameter>
<parameter name="recordwalkers" condition="int">1</parameter>
<parameter name="rewind" condition="int">0</parameter>
<parameter name="samples" condition="real">2.5600e+05</parameter>
<parameter name="samplesperthread" condition="real">2.5000e+02</parameter>
<parameter name="steps" condition="int">1</parameter>
<parameter name="stepsbetweensamples" condition="int">1</parameter>
<parameter name="store_configs" condition="int">0</parameter>
<parameter name="storeconfigs" condition="int">0</parameter>
<parameter name="sub_steps" condition="int">5</parameter>
<parameter name="substeps" condition="int">5</parameter>
<parameter name="tau" condition="au">1.5000e-01</parameter>
<parameter name="time_step" condition="au">1.5000e-01</parameter>
<parameter name="timestep" condition="au">1.5000e-01</parameter>
<parameter name="use_drift" condition="string">no</parameter>
<parameter name="usedrift" condition="string">no</parameter>
<parameter name="walkers" condition="int">1</parameter>
<parameter name="warmup_steps" condition="int">0</parameter>
<parameter name="warmupsteps" condition="int">0</parameter>
  DumpConfig==false Nothing (configurations, state) will be saved.
  Walker Samples are dumped every 1 steps.
</vmc>
  Set drift_modifier UNR parameter a = 1.0000e+00
  EstimatorManagerBase::add replace LocalEnergy estimator.
  Set drift_modifier UNR parameter a = 1.0000e+00
  EstimatorManagerBase::add replace LocalEnergy estimator.
<optimization-report>
<vmc stage="main" blocks="400">
  Cannot make clones again. Use existing 1 clones
  Initial partition of walkers 0 1 
  Using Particle by Particle moves
  Walker moves without drift
  Total Sample Size   =256000
  Walker distribution on root = 0 1 
  Using Locality Approximation
===== Memory Usage after the buffer registration =====
Available memory on node 0, free + buffers : 52799 MB
Memory footprint by rank 0 on node 0       : 596 MB
==================================================
====================================================
  SimpleFixedNodeBranch::finalize after a VMC block
    QMC counter        = 9
    time step          = 0.15
    reference energy   = -18.4627
    reference variance = 0.118121
====================================================
  Execution time = 3.5714e+00
</vmc>
<opt stage="setup">
  <log>
   Reading configurations from h5FileRoot Kr.log.s009
  QMCCostFunction is created with 1 threads.
  Using Nonlocal PP in Opt: NonLocalECP
   Number of samples loaded to each thread : 250 
  VMC Eavg = -1.8453e+01
  VMC Evar = 1.2812e-01
  Total weights = 2.5600e+05
  Execution time = 7.1222e-01
  </log>
</opt>
<opt stage="main" walkers="256000">
  <log>

*****************************************
Building overlap and Hamiltonian matrices
*****************************************

Among totally 30 optimized parameters, largest LM parameter change : 4.3296e-02 at parameter 27

******************************************************************************
Init Cost =   1.2812e-01    New Cost =   1.2847e-01  Delta Cost =   3.5240e-04
******************************************************************************

The new set of parameters is valid. Updating the trial wave function!

*****************************************************************************
Applying the update for shift_i =   1.0000e-02     and shift_s =   3.9062e-03
*****************************************************************************
  Execution time = 5.0045e+00
  </log>
  <optVariables href="Kr.log.s009.opt.xml">
 uu_0                 3.729842e-01 1 1  ON 0
 uu_1                 1.776552e-01 1 1  ON 1
 uu_2                 5.348123e-02 1 1  ON 2
 uu_3                -3.098535e-02 1 1  ON 3
 uu_4                -8.973735e-02 1 1  ON 4
 uu_5                -1.266350e-01 1 1  ON 5
 uu_6                -1.442570e-01 1 1  ON 6
 uu_7                -1.381869e-01 1 1  ON 7
 uu_8                -9.344169e-02 1 1  ON 8
 uu_9                -1.032979e-02 1 1  ON 9
 ud_0                 5.906017e-01 1 1  ON 10
 ud_1                 2.583924e-01 1 1  ON 11
 ud_2                 8.042797e-02 1 1  ON 12
 ud_3                -1.983847e-02 1 1  ON 13
 ud_4                -9.337611e-02 1 1  ON 14
 ud_5                -1.476612e-01 1 1  ON 15
 ud_6                -1.842838e-01 1 1  ON 16
 ud_7                -1.962272e-01 1 1  ON 17
 ud_8                -1.667554e-01 1 1  ON 18
 ud_9                -9.442471e-02 1 1  ON 19
eKr_0                -1.041758e+00 1 1  ON 20
eKr_1                -8.724185e-01 1 1  ON 21
eKr_2                -4.478693e-01 1 1  ON 22
eKr_3                 7.472388e-03 1 1  ON 23
eKr_4                 3.684801e-01 1 1  ON 24
eKr_5                 6.216687e-01 1 1  ON 25
eKr_6                 7.257493e-01 1 1  ON 26
eKr_7                 5.363958e-01 1 1  ON 27
eKr_8                 1.228268e-01 1 1  ON 28
eKr_9                -1.107547e-02 1 1  ON 29
  </optVariables>
   Restore the number of walkers to 1, removing 0 walkers.
</opt>
</optimization-report>
  QMC Execution time = 5.014 secs
  Reusing QMCFixedSampleLinearOptimize
 Using QMCCostFunction::QMCCostFunction

=========================================================
  Start QMCFixedSampleLinearOptimize
  File Root Kr.log.s010 append = no 
=========================================================
  Skip QMCDriver::putQMCInfo 
  Resetting Properties of the walkers 1 x 13

=========================================================
  Start VMC
  File Root Kr.log.s010 append = no 
=========================================================
Using existing walkers 
  Resetting Properties of the walkers 1 x 13

<vmc function="put">
  qmc_counter=4  my_counter=9
  time step      = 1.5000e-01
  blocks         = 400
  steps          = 1
  substeps       = 5
  current        = 0
  target samples = 2.5600e+05
  walkers/mpi    = 1

  stepsbetweensamples = 1
<parameter name="blocks" condition="int">400</parameter>
<parameter name="blocks_between_recompute" condition="int">0</parameter>
<parameter name="check_properties" condition="int">100</parameter>
<parameter name="checkproperties" condition="int">100</parameter>
<parameter name="current" condition="int">0</parameter>
<parameter name="dmcwalkersperthread" condition="real">2.5000e+02</parameter>
<parameter name="maxcpusecs" condition="real">3.6000e+05</parameter>
<parameter name="record_configs" condition="int">0</parameter>
<parameter name="record_walkers" condition="int">1</parameter>
<parameter name="recordconfigs" condition="int">0</parameter>
<parameter name="recordwalkers" condition="int">1</parameter>
<parameter name="rewind" condition="int">0</parameter>
<parameter name="samples" condition="real">2.5600e+05</parameter>
<parameter name="samplesperthread" condition="real">2.5000e+02</parameter>
<parameter name="steps" condition="int">1</parameter>
<parameter name="stepsbetweensamples" condition="int">1</parameter>
<parameter name="store_configs" condition="int">0</parameter>
<parameter name="storeconfigs" condition="int">0</parameter>
<parameter name="sub_steps" condition="int">5</parameter>
<parameter name="substeps" condition="int">5</parameter>
<parameter name="tau" condition="au">1.5000e-01</parameter>
<parameter name="time_step" condition="au">1.5000e-01</parameter>
<parameter name="timestep" condition="au">1.5000e-01</parameter>
<parameter name="use_drift" condition="string">no</parameter>
<parameter name="usedrift" condition="string">no</parameter>
<parameter name="walkers" condition="int">1</parameter>
<parameter name="warmup_steps" condition="int">0</parameter>
<parameter name="warmupsteps" condition="int">0</parameter>
  DumpConfig==false Nothing (configurations, state) will be saved.
  Walker Samples are dumped every 1 steps.
</vmc>
  Set drift_modifier UNR parameter a = 1.0000e+00
  EstimatorManagerBase::add replace LocalEnergy estimator.
  Set drift_modifier UNR parameter a = 1.0000e+00
  EstimatorManagerBase::add replace LocalEnergy estimator.
<optimization-report>
<vmc stage="main" blocks="400">
  Cannot make clones again. Use existing 1 clones
  Initial partition of walkers 0 1 
  Using Particle by Particle moves
  Walker moves without drift
  Total Sample Size   =256000
  Walker distribution on root = 0 1 
  Using Locality Approximation
===== Memory Usage after the buffer registration =====
Available memory on node 0, free + buffers : 52796 MB
Memory footprint by rank 0 on node 0       : 599 MB
==================================================
====================================================
  SimpleFixedNodeBranch::finalize after a VMC block
    QMC counter        = 10
    time step          = 0.15
    reference energy   = -18.4344
    reference variance = 0.113173
====================================================
  Execution time = 3.5739e+00
</vmc>
<opt stage="setup">
  <log>
   Reading configurations from h5FileRoot Kr.log.s010
  QMCCostFunction is created with 1 threads.
  Using Nonlocal PP in Opt: NonLocalECP
   Number of samples loaded to each thread : 250 
  VMC Eavg = -1.8454e+01
  VMC Evar = 1.5226e-01
  Total weights = 2.5600e+05
  Execution time = 7.2580e-01
  </log>
</opt>
<opt stage="main" walkers="256000">
  <log>

*****************************************
Building overlap and Hamiltonian matrices
*****************************************

Among totally 30 optimized parameters, largest LM parameter change : 3.2240e-02 at parameter 27

******************************************************************************
Init Cost =   1.5226e-01    New Cost =   1.5216e-01  Delta Cost =  -1.0351e-04
******************************************************************************

The new set of parameters is valid. Updating the trial wave function!

*****************************************************************************
Applying the update for shift_i =   1.0000e-02     and shift_s =   3.9062e-03
*****************************************************************************
  Execution time = 5.0257e+00
  </log>
  <optVariables href="Kr.log.s010.opt.xml">
 uu_0                 3.772185e-01 1 1  ON 0
 uu_1                 1.800666e-01 1 1  ON 1
 uu_2                 5.655389e-02 1 1  ON 2
 uu_3                -2.835249e-02 1 1  ON 3
 uu_4                -8.699110e-02 1 1  ON 4
 uu_5                -1.244941e-01 1 1  ON 5
 uu_6                -1.420597e-01 1 1  ON 6
 uu_7                -1.377421e-01 1 1  ON 7
 uu_8                -9.850571e-02 1 1  ON 8
 uu_9                -1.879966e-02 1 1  ON 9
 ud_0                 5.989027e-01 1 1  ON 10
 ud_1                 2.660029e-01 1 1  ON 11
 ud_2                 8.826117e-02 1 1  ON 12
 ud_3                -1.255201e-02 1 1  ON 13
 ud_4                -8.669084e-02 1 1  ON 14
 ud_5                -1.430845e-01 1 1  ON 15
 ud_6                -1.821299e-01 1 1  ON 16
 ud_7                -1.956602e-01 1 1  ON 17
 ud_8                -1.766549e-01 1 1  ON 18
 ud_9                -1.120196e-01 1 1  ON 19
eKr_0                -1.056508e+00 1 1  ON 20
eKr_1                -8.848212e-01 1 1  ON 21
eKr_2                -4.594132e-01 1 1  ON 22
eKr_3                -8.249580e-04 1 1  ON 23
eKr_4                 3.626903e-01 1 1  ON 24
eKr_5                 6.174462e-01 1 1  ON 25
eKr_6                 7.330424e-01 1 1  ON 26
eKr_7                 5.686359e-01 1 1  ON 27
eKr_8                 1.426438e-01 1 1  ON 28
eKr_9                -1.198184e-02 1 1  ON 29
  </optVariables>
   Restore the number of walkers to 1, removing 0 walkers.
</opt>
</optimization-report>
  QMC Execution time = 5.035 secs
Loop execution max-interations = 10
  Reusing QMCFixedSampleLinearOptimize
 Using QMCCostFunction::QMCCostFunction

=========================================================
  Start QMCFixedSampleLinearOptimize
  File Root Kr.log.s011 append = no 
=========================================================
  Skip QMCDriver::putQMCInfo 
  Resetting Properties of the walkers 1 x 13

=========================================================
  Start VMC
  File Root Kr.log.s011 append = no 
=========================================================
  Using the current 1 walkers.
  Total number of walkers: 1.0240e+03
  Total weight: 1.0240e+03
[...]
eKr_7                 7.182161e-01 1 1  ON 27
eKr_8                 2.902139e-01 1 1  ON 28
eKr_9                 3.954606e-03 1 1  ON 29
  </optVariables>
   Restore the number of walkers to 1, removing 0 walkers.
</opt>
</optimization-report>
  QMC Execution time = 7.875 secs
  Reusing QMCFixedSampleLinearOptimize
 Using QMCCostFunction::QMCCostFunction

=========================================================
  Start QMCFixedSampleLinearOptimize
  File Root Kr.log.s018 append = no 
=========================================================
  Skip QMCDriver::putQMCInfo 
  Resetting Properties of the walkers 1 x 13

=========================================================
  Start VMC
  File Root Kr.log.s018 append = no 
=========================================================
Using existing walkers 
  Resetting Properties of the walkers 1 x 13

<vmc function="put">
  qmc_counter=7  my_counter=17
  time step      = 1.5000e-01
  blocks         = 400
  steps          = 2
  substeps       = 5
  current        = 0
  target samples = 5.1200e+05
  walkers/mpi    = 1

  stepsbetweensamples = 1
<parameter name="blocks" condition="int">400</parameter>
<parameter name="blocks_between_recompute" condition="int">0</parameter>
<parameter name="check_properties" condition="int">100</parameter>
<parameter name="checkproperties" condition="int">100</parameter>
<parameter name="current" condition="int">0</parameter>
<parameter name="dmcwalkersperthread" condition="real">5.0000e+02</parameter>
<parameter name="maxcpusecs" condition="real">3.6000e+05</parameter>
<parameter name="record_configs" condition="int">0</parameter>
<parameter name="record_walkers" condition="int">1</parameter>
<parameter name="recordconfigs" condition="int">0</parameter>
<parameter name="recordwalkers" condition="int">1</parameter>
<parameter name="rewind" condition="int">0</parameter>
<parameter name="samples" condition="real">5.1200e+05</parameter>
<parameter name="samplesperthread" condition="real">5.0000e+02</parameter>
<parameter name="steps" condition="int">2</parameter>
<parameter name="stepsbetweensamples" condition="int">1</parameter>
<parameter name="store_configs" condition="int">0</parameter>
<parameter name="storeconfigs" condition="int">0</parameter>
<parameter name="sub_steps" condition="int">5</parameter>
<parameter name="substeps" condition="int">5</parameter>
<parameter name="tau" condition="au">1.5000e-01</parameter>
<parameter name="time_step" condition="au">1.5000e-01</parameter>
<parameter name="timestep" condition="au">1.5000e-01</parameter>
<parameter name="use_drift" condition="string">no</parameter>
<parameter name="usedrift" condition="string">no</parameter>
<parameter name="walkers" condition="int">1</parameter>
<parameter name="warmup_steps" condition="int">0</parameter>
<parameter name="warmupsteps" condition="int">0</parameter>
  DumpConfig==false Nothing (configurations, state) will be saved.
  Walker Samples are dumped every 1 steps.
</vmc>
  Set drift_modifier UNR parameter a = 1.0000e+00
  EstimatorManagerBase::add replace LocalEnergy estimator.
  Set drift_modifier UNR parameter a = 1.0000e+00
  EstimatorManagerBase::add replace LocalEnergy estimator.
<optimization-report>
<vmc stage="main" blocks="400">
  Cannot make clones again. Use existing 1 clones
  Initial partition of walkers 0 1 
  Using Particle by Particle moves
  Walker moves without drift
  Total Sample Size   =512000
  Walker distribution on root = 0 1 
  Using Locality Approximation
===== Memory Usage after the buffer registration =====
Available memory on node 0, free + buffers : 52754 MB
Memory footprint by rank 0 on node 0       : 620 MB
==================================================
====================================================
  SimpleFixedNodeBranch::finalize after a VMC block
    QMC counter        = 18
    time step          = 0.15
    reference energy   = -18.4769
    reference variance = 0.130513
====================================================
  Execution time = 4.9612e+00
</vmc>
<opt stage="setup">
  <log>
   Reading configurations from h5FileRoot Kr.log.s018
  QMCCostFunction is created with 1 threads.
  Using Nonlocal PP in Opt: NonLocalECP
   Number of samples loaded to each thread : 500 
  VMC Eavg = -1.8455e+01
  VMC Evar = 1.2667e-01
  Total weights = 5.1200e+05
  Execution time = 1.4342e+00
  </log>
</opt>
<opt stage="main" walkers="512000">
  <log>

*****************************************
Building overlap and Hamiltonian matrices
*****************************************

Among totally 30 optimized parameters, largest LM parameter change : 1.8207e-02 at parameter 28

******************************************************************************
Init Cost =  -1.7526e+01    New Cost =  -1.7526e+01  Delta Cost =  -3.4916e-05
******************************************************************************

The new set of parameters is valid. Updating the trial wave function!

*****************************************************************************
Applying the update for shift_i =   1.0000e-02     and shift_s =   3.9062e-03
*****************************************************************************
  Execution time = 7.8467e+00
  </log>
  <optVariables href="Kr.log.s018.opt.xml">
 uu_0                 3.838630e-01 1 1  ON 0
 uu_1                 1.904276e-01 1 1  ON 1
 uu_2                 6.511216e-02 1 1  ON 2
 uu_3                -2.039786e-02 1 1  ON 3
 uu_4                -8.017904e-02 1 1  ON 4
 uu_5                -1.196066e-01 1 1  ON 5
 uu_6                -1.411412e-01 1 1  ON 6
 uu_7                -1.445672e-01 1 1  ON 7
 uu_8                -1.197680e-01 1 1  ON 8
 uu_9                -5.288574e-02 1 1  ON 9
 ud_0                 6.152584e-01 1 1  ON 10
 ud_1                 2.821972e-01 1 1  ON 11
 ud_2                 1.044302e-01 1 1  ON 12
 ud_3                 2.674040e-03 1 1  ON 13
 ud_4                -7.237318e-02 1 1  ON 14
 ud_5                -1.299232e-01 1 1  ON 15
 ud_6                -1.714616e-01 1 1  ON 16
 ud_7                -1.913975e-01 1 1  ON 17
 ud_8                -1.818617e-01 1 1  ON 18
 ud_9                -1.378179e-01 1 1  ON 19
eKr_0                -1.134136e+00 1 1  ON 20
eKr_1                -9.596829e-01 1 1  ON 21
eKr_2                -5.297889e-01 1 1  ON 22
eKr_3                -6.487417e-02 1 1  ON 23
eKr_4                 3.121951e-01 1 1  ON 24
eKr_5                 5.942219e-01 1 1  ON 25
eKr_6                 7.537770e-01 1 1  ON 26
eKr_7                 7.311278e-01 1 1  ON 27
eKr_8                 3.084208e-01 1 1  ON 28
eKr_9                 7.791074e-03 1 1  ON 29
  </optVariables>
   Restore the number of walkers to 1, removing 0 walkers.
</opt>
</optimization-report>
  QMC Execution time = 7.855 secs
  Reusing QMCFixedSampleLinearOptimize
 Using QMCCostFunction::QMCCostFunction

=========================================================
  Start QMCFixedSampleLinearOptimize
  File Root Kr.log.s019 append = no 
=========================================================
  Skip QMCDriver::putQMCInfo 
  Resetting Properties of the walkers 1 x 13

=========================================================
  Start VMC
  File Root Kr.log.s019 append = no 
=========================================================
Using existing walkers 
  Resetting Properties of the walkers 1 x 13

<vmc function="put">
  qmc_counter=8  my_counter=18
  time step      = 1.5000e-01
  blocks         = 400
  steps          = 2
  substeps       = 5
  current        = 0
  target samples = 5.1200e+05
  walkers/mpi    = 1

  stepsbetweensamples = 1
<parameter name="blocks" condition="int">400</parameter>
<parameter name="blocks_between_recompute" condition="int">0</parameter>
<parameter name="check_properties" condition="int">100</parameter>
<parameter name="checkproperties" condition="int">100</parameter>
<parameter name="current" condition="int">0</parameter>
<parameter name="dmcwalkersperthread" condition="real">5.0000e+02</parameter>
<parameter name="maxcpusecs" condition="real">3.6000e+05</parameter>
<parameter name="record_configs" condition="int">0</parameter>
<parameter name="record_walkers" condition="int">1</parameter>
<parameter name="recordconfigs" condition="int">0</parameter>
<parameter name="recordwalkers" condition="int">1</parameter>
<parameter name="rewind" condition="int">0</parameter>
<parameter name="samples" condition="real">5.1200e+05</parameter>
<parameter name="samplesperthread" condition="real">5.0000e+02</parameter>
<parameter name="steps" condition="int">2</parameter>
<parameter name="stepsbetweensamples" condition="int">1</parameter>
<parameter name="store_configs" condition="int">0</parameter>
<parameter name="storeconfigs" condition="int">0</parameter>
<parameter name="sub_steps" condition="int">5</parameter>
<parameter name="substeps" condition="int">5</parameter>
<parameter name="tau" condition="au">1.5000e-01</parameter>
<parameter name="time_step" condition="au">1.5000e-01</parameter>
<parameter name="timestep" condition="au">1.5000e-01</parameter>
<parameter name="use_drift" condition="string">no</parameter>
<parameter name="usedrift" condition="string">no</parameter>
<parameter name="walkers" condition="int">1</parameter>
<parameter name="warmup_steps" condition="int">0</parameter>
<parameter name="warmupsteps" condition="int">0</parameter>
  DumpConfig==false Nothing (configurations, state) will be saved.
  Walker Samples are dumped every 1 steps.
</vmc>
  Set drift_modifier UNR parameter a = 1.0000e+00
  EstimatorManagerBase::add replace LocalEnergy estimator.
  Set drift_modifier UNR parameter a = 1.0000e+00
  EstimatorManagerBase::add replace LocalEnergy estimator.
<optimization-report>
<vmc stage="main" blocks="400">
  Cannot make clones again. Use existing 1 clones
  Initial partition of walkers 0 1 
  Using Particle by Particle moves
  Walker moves without drift
  Total Sample Size   =512000
  Walker distribution on root = 0 1 
  Using Locality Approximation
===== Memory Usage after the buffer registration =====
Available memory on node 0, free + buffers : 52750 MB
Memory footprint by rank 0 on node 0       : 623 MB
==================================================
====================================================
  SimpleFixedNodeBranch::finalize after a VMC block
    QMC counter        = 19
    time step          = 0.15
    reference energy   = -18.4557
    reference variance = 0.134177
====================================================
  Execution time = 4.9718e+00
</vmc>
<opt stage="setup">
  <log>
   Reading configurations from h5FileRoot Kr.log.s019
  QMCCostFunction is created with 1 threads.
  Using Nonlocal PP in Opt: NonLocalECP
   Number of samples loaded to each thread : 500 
  VMC Eavg = -1.8455e+01
  VMC Evar = 1.2733e-01
  Total weights = 5.1200e+05
  Execution time = 1.4553e+00
  </log>
</opt>
<opt stage="main" walkers="512000">
  <log>

*****************************************
Building overlap and Hamiltonian matrices
*****************************************

Among totally 30 optimized parameters, largest LM parameter change : 1.6104e-02 at parameter 28

******************************************************************************
Init Cost =  -1.7526e+01    New Cost =  -1.7526e+01  Delta Cost =  -1.0287e-05
******************************************************************************

The new set of parameters is valid. Updating the trial wave function!

*****************************************************************************
Applying the update for shift_i =   1.0000e-02     and shift_s =   3.9062e-03
*****************************************************************************
  Execution time = 7.8863e+00
  </log>
  <optVariables href="Kr.log.s019.opt.xml">
 uu_0                 3.855182e-01 1 1  ON 0
 uu_1                 1.902374e-01 1 1  ON 1
 uu_2                 6.535089e-02 1 1  ON 2
 uu_3                -2.012944e-02 1 1  ON 3
 uu_4                -8.013720e-02 1 1  ON 4
 uu_5                -1.189495e-01 1 1  ON 5
 uu_6                -1.407913e-01 1 1  ON 6
 uu_7                -1.442947e-01 1 1  ON 7
 uu_8                -1.211036e-01 1 1  ON 8
 uu_9                -5.639389e-02 1 1  ON 9
 ud_0                 6.192794e-01 1 1  ON 10
 ud_1                 2.864327e-01 1 1  ON 11
 ud_2                 1.081958e-01 1 1  ON 12
 ud_3                 6.685118e-03 1 1  ON 13
 ud_4                -6.848349e-02 1 1  ON 14
 ud_5                -1.265869e-01 1 1  ON 15
 ud_6                -1.707895e-01 1 1  ON 16
 ud_7                -1.940347e-01 1 1  ON 17
 ud_8                -1.858168e-01 1 1  ON 18
 ud_9                -1.418724e-01 1 1  ON 19
eKr_0                -1.141370e+00 1 1  ON 20
eKr_1                -9.658161e-01 1 1  ON 21
eKr_2                -5.360523e-01 1 1  ON 22
eKr_3                -6.939041e-02 1 1  ON 23
eKr_4                 3.074510e-01 1 1  ON 24
eKr_5                 5.953192e-01 1 1  ON 25
eKr_6                 7.554580e-01 1 1  ON 26
eKr_7                 7.388058e-01 1 1  ON 27
eKr_8                 3.245246e-01 1 1  ON 28
eKr_9                 1.070213e-02 1 1  ON 29
  </optVariables>
   Restore the number of walkers to 1, removing 0 walkers.
</opt>
</optimization-report>
  QMC Execution time = 7.895 secs
  Reusing QMCFixedSampleLinearOptimize
 Using QMCCostFunction::QMCCostFunction

=========================================================
  Start QMCFixedSampleLinearOptimize
  File Root Kr.log.s020 append = no 
=========================================================
  Skip QMCDriver::putQMCInfo 
  Resetting Properties of the walkers 1 x 13

=========================================================
  Start VMC
  File Root Kr.log.s020 append = no 
=========================================================
Using existing walkers 
  Resetting Properties of the walkers 1 x 13

<vmc function="put">
  qmc_counter=9  my_counter=19
  time step      = 1.5000e-01
  blocks         = 400
  steps          = 2
  substeps       = 5
  current        = 0
  target samples = 5.1200e+05
  walkers/mpi    = 1

  stepsbetweensamples = 1
<parameter name="blocks" condition="int">400</parameter>
<parameter name="blocks_between_recompute" condition="int">0</parameter>
<parameter name="check_properties" condition="int">100</parameter>
<parameter name="checkproperties" condition="int">100</parameter>
<parameter name="current" condition="int">0</parameter>
<parameter name="dmcwalkersperthread" condition="real">5.0000e+02</parameter>
<parameter name="maxcpusecs" condition="real">3.6000e+05</parameter>
<parameter name="record_configs" condition="int">0</parameter>
<parameter name="record_walkers" condition="int">1</parameter>
<parameter name="recordconfigs" condition="int">0</parameter>
<parameter name="recordwalkers" condition="int">1</parameter>
<parameter name="rewind" condition="int">0</parameter>
<parameter name="samples" condition="real">5.1200e+05</parameter>
<parameter name="samplesperthread" condition="real">5.0000e+02</parameter>
<parameter name="steps" condition="int">2</parameter>
<parameter name="stepsbetweensamples" condition="int">1</parameter>
<parameter name="store_configs" condition="int">0</parameter>
<parameter name="storeconfigs" condition="int">0</parameter>
<parameter name="sub_steps" condition="int">5</parameter>
<parameter name="substeps" condition="int">5</parameter>
<parameter name="tau" condition="au">1.5000e-01</parameter>
<parameter name="time_step" condition="au">1.5000e-01</parameter>
<parameter name="timestep" condition="au">1.5000e-01</parameter>
<parameter name="use_drift" condition="string">no</parameter>
<parameter name="usedrift" condition="string">no</parameter>
<parameter name="walkers" condition="int">1</parameter>
<parameter name="warmup_steps" condition="int">0</parameter>
<parameter name="warmupsteps" condition="int">0</parameter>
  DumpConfig==false Nothing (configurations, state) will be saved.
  Walker Samples are dumped every 1 steps.
</vmc>
  Set drift_modifier UNR parameter a = 1.0000e+00
  EstimatorManagerBase::add replace LocalEnergy estimator.
  Set drift_modifier UNR parameter a = 1.0000e+00
  EstimatorManagerBase::add replace LocalEnergy estimator.
<optimization-report>
<vmc stage="main" blocks="400">
  Cannot make clones again. Use existing 1 clones
  Initial partition of walkers 0 1 
  Using Particle by Particle moves
  Walker moves without drift
  Total Sample Size   =512000
  Walker distribution on root = 0 1 
  Using Locality Approximation
===== Memory Usage after the buffer registration =====
Available memory on node 0, free + buffers : 52745 MB
Memory footprint by rank 0 on node 0       : 626 MB
==================================================
====================================================
  SimpleFixedNodeBranch::finalize after a VMC block
    QMC counter        = 20
    time step          = 0.15
    reference energy   = -18.4569
    reference variance = 0.144097
====================================================
  Execution time = 5.0821e+00
</vmc>
<opt stage="setup">
  <log>
   Reading configurations from h5FileRoot Kr.log.s020
  QMCCostFunction is created with 1 threads.
  Using Nonlocal PP in Opt: NonLocalECP
   Number of samples loaded to each thread : 500 
  VMC Eavg = -1.8455e+01
  VMC Evar = 1.3620e-01
  Total weights = 5.1200e+05
  Execution time = 1.4522e+00
  </log>
</opt>
<opt stage="main" walkers="512000">
  <log>

*****************************************
Building overlap and Hamiltonian matrices
*****************************************

Among totally 30 optimized parameters, largest LM parameter change : 6.5388e+02 at parameter 29

******************************************************************************
Init Cost =  -1.7526e+01    New Cost =  -1.0144e+05  Delta Cost =  -1.0143e+05
******************************************************************************

The new set of parameters is not valid. Revert to the old set!

*****************************************************************************
Applying the update for shift_i =   1.0000e-02     and shift_s =   1.5625e-02
*****************************************************************************
  Execution time = 6.8780e+00
  </log>
  <optVariables href="Kr.log.s020.opt.xml">
 uu_0                 3.855182e-01 1 1  ON 0
 uu_1                 1.902374e-01 1 1  ON 1
 uu_2                 6.535089e-02 1 1  ON 2
 uu_3                -2.012944e-02 1 1  ON 3
 uu_4                -8.013720e-02 1 1  ON 4
 uu_5                -1.189495e-01 1 1  ON 5
 uu_6                -1.407913e-01 1 1  ON 6
 uu_7                -1.442947e-01 1 1  ON 7
 uu_8                -1.211036e-01 1 1  ON 8
 uu_9                -5.639389e-02 1 1  ON 9
 ud_0                 6.192794e-01 1 1  ON 10
 ud_1                 2.864327e-01 1 1  ON 11
 ud_2                 1.081958e-01 1 1  ON 12
 ud_3                 6.685118e-03 1 1  ON 13
 ud_4                -6.848349e-02 1 1  ON 14
 ud_5                -1.265869e-01 1 1  ON 15
 ud_6                -1.707895e-01 1 1  ON 16
 ud_7                -1.940347e-01 1 1  ON 17
 ud_8                -1.858168e-01 1 1  ON 18
 ud_9                -1.418724e-01 1 1  ON 19
eKr_0                -1.141370e+00 1 1  ON 20
eKr_1                -9.658161e-01 1 1  ON 21
eKr_2                -5.360523e-01 1 1  ON 22
eKr_3                -6.939041e-02 1 1  ON 23
eKr_4                 3.074510e-01 1 1  ON 24
eKr_5                 5.953192e-01 1 1  ON 25
eKr_6                 7.554580e-01 1 1  ON 26
eKr_7                 7.388058e-01 1 1  ON 27
eKr_8                 3.245246e-01 1 1  ON 28
eKr_9                 1.070213e-02 1 1  ON 29
  </optVariables>
   Restore the number of walkers to 1, removing 0 walkers.
</opt>
</optimization-report>
  QMC Execution time = 6.886 secs
  Total Execution time = 126.7 secs

=========================================================
  A new xml input file : Kr.log.s020.cont.xml
TACC:  Shutdown complete. Exiting. 
