TACC:  Starting up job 2696973 
TACC:  Starting parallel tasks... 
  Input file(s): V.log.qmc.in-wfj.xml 

=====================================================
                    QMCPACK 3.5.0 

       (c) Copyright 2003-  QMCPACK developers

                    Please cite:
 J. Kim et al. J. Phys. Cond. Mat. 30 195901 (2018)
      https://doi.org/10.1088/1361-648X/aab9c3

  Git branch: develop
  Last git commit: ca320f40410f5ef17c38db08d5c54848ef64bfe1
  Last git commit date: Tue Dec 18 15:37:17 2018 +0800
  Last git commit subject: Merge pull request #764 from Paul-St-Young/dat-h5
=====================================================
  Global options 

  MPI Nodes             = 1024
  MPI Nodes per group   = 1024
  MPI Group ID          = 0
  OMP 1st level threads = 1
  OMP nested threading disabled or only 1 thread on the 2nd level

  Precision used in this calculation, see definitions in the manual:
  Base precision      = double
  Full precision      = double

  Structure-of-arrays (SoA) optimization enabled

  Input XML = V.log.qmc.in-wfj.xml

  Project = V.log
  date    = 2018-12-27 16:33:04 CST
  host    = c456-042.stampede2.tacc.utexas.edu

 Random Number
 -------------
  Offset for the random number seeds based on time: 800

  Range of prime numbers to use as seeds over processors and threads = 6151-15649


 Particle Set 
 ------------
  Name: ion0
  All the species have the same mass 1
  Particle set size: 1

 Particle Set 
 ------------
  Name: e
  All the species have the same mass 1
  Particle set size: 13

 Wavefunction setup: 
 ------------------- 
  Name: psi0
  LCAO: SoaAtomicBasisSet<MultiQuintic,1>

  Distance table for similar particles (A-A):
    source/target: e
    Using structure-of-arrays (SoA) data layout
    Distance computations use open boundary conditions in 3D.


  Distance table for dissimilar particles (A-B):
    source: ion0  target: e
    Using structure-of-arrays (SoA) data layout
    Distance computations use open boundary conditions in 3D.

Reading BasisSet from HDF5 file:V.log.h5
<input node="atomicBasisSet" name="gaussian" expandYlm="pyscf" angular="spherical" elementType="V" normalized="no" type="Numerical" expM="0" />
  AO BasisSet for V
   Spherical Harmonics contain (-1)^m factor
   Angular momentum m expanded as -l, ... ,l, with the exception of L=1 (1,-1,0)
   Grid is created by the input paremters in h5
    Using log grid ri = 1e-06 rf = 100 npts = 1001
   R(n,l,m,s) 0 0 0 0
   R(n,l,m,s) 1 0 0 0
   R(n,l,m,s) 2 0 0 0
   R(n,l,m,s) 3 0 0 0
   R(n,l,m,s) 4 0 0 0
   R(n,l,m,s) 5 0 0 0
   R(n,l,m,s) 6 0 0 0
   R(n,l,m,s) 7 0 0 0
   R(n,l,m,s) 8 1 0 0
   R(n,l,m,s) 9 1 0 0
   R(n,l,m,s) 10 1 0 0
   R(n,l,m,s) 11 1 0 0
   R(n,l,m,s) 12 1 0 0
   R(n,l,m,s) 13 1 0 0
   R(n,l,m,s) 14 1 0 0
   R(n,l,m,s) 15 1 0 0
   R(n,l,m,s) 16 2 0 0
   R(n,l,m,s) 17 2 0 0
   R(n,l,m,s) 18 2 0 0
   R(n,l,m,s) 19 2 0 0
   R(n,l,m,s) 20 2 0 0
   R(n,l,m,s) 21 2 0 0
   R(n,l,m,s) 22 2 0 0
   R(n,l,m,s) 23 3 0 0
   R(n,l,m,s) 24 3 0 0
   R(n,l,m,s) 25 3 0 0
   R(n,l,m,s) 26 3 0 0
   R(n,l,m,s) 27 4 0 0
   R(n,l,m,s) 28 4 0 0
   R(n,l,m,s) 29 4 0 0
   R(n,l,m,s) 30 5 0 0
   R(n,l,m,s) 31 5 0 0
Expanding Ylm as L=1 as (1,-1,0) and L>1 as -l,-l+1,...,l-1,l
   Adding 1 spherical orbitals
   Adding 1 spherical orbitals
   Adding 1 spherical orbitals
   Adding 1 spherical orbitals
   Adding 1 spherical orbitals
   Adding 1 spherical orbitals
   Adding 1 spherical orbitals
   Adding 1 spherical orbitals
   Adding 3 spherical orbitals
   Adding 3 spherical orbitals
   Adding 3 spherical orbitals
   Adding 3 spherical orbitals
   Adding 3 spherical orbitals
   Adding 3 spherical orbitals
   Adding 3 spherical orbitals
   Adding 3 spherical orbitals
   Adding 5 spherical orbitals
   Adding 5 spherical orbitals
   Adding 5 spherical orbitals
   Adding 5 spherical orbitals
   Adding 5 spherical orbitals
   Adding 5 spherical orbitals
   Adding 5 spherical orbitals
   Adding 7 spherical orbitals
   Adding 7 spherical orbitals
   Adding 7 spherical orbitals
   Adding 7 spherical orbitals
   Adding 9 spherical orbitals
   Adding 9 spherical orbitals
   Adding 9 spherical orbitals
   Adding 11 spherical orbitals
   Adding 11 spherical orbitals
   Maximum Angular Momentum  = 5
   Number of Radial functors = 32
   Basis size                = 144

  Created SPOSet builder named 'LCAOBSet' of type molecularorbital
Reuse SPOSetBuilder "LCAOBSet" type MolecularOrbital
  Building SPOSet '' with '' basis set.
Reuse SPOSetBuilder "LCAOBSet" type MolecularOrbital
  Building SPOSet '' with '' basis set.
  Creating a determinant updet group=0 sposet=updet
  Reusing a SPO set updet
Using DiracDeterminant 
Using rank-1 Sherman-Morrison Fahy update

  Creating a determinant downdet group=1 sposet=downdet
  Reusing a SPO set downdet
Using DiracDeterminant 
Using rank-1 Sherman-Morrison Fahy update

  FermionWF = SlaterDet
  RadialJastrowBuilder adds a functor with cusp = -0.25
 size = 10 parameters 
 cusp = -0.25
 rcut = 12.1
Parameter     Name      Value
uu_0 0.260776 1 1  ON 0
uu_1 0.0646966 1 1  ON 1
uu_2 -0.0212076 1 1  ON 2
uu_3 -0.0745415 1 1  ON 3
uu_4 -0.100833 1 1  ON 4
uu_5 -0.123386 1 1  ON 5
uu_6 -0.129834 1 1  ON 6
uu_7 -0.121576 1 1  ON 7
uu_8 -0.0703532 1 1  ON 8
uu_9 -0.0018398 1 1  ON 9
  RadialJastrowBuilder adds a functor with cusp = -0.5
 size = 10 parameters 
 cusp = -0.5
 rcut = 12.1
Parameter     Name      Value
ud_0 0.46915 1 1  ON 0
ud_1 0.218165 1 1  ON 1
ud_2 0.128658 1 1  ON 2
ud_3 0.0630018 1 1  ON 3
ud_4 0.019293 1 1  ON 4
ud_5 -0.0315605 1 1  ON 5
ud_6 -0.0655265 1 1  ON 6
ud_7 -0.0880461 1 1  ON 7
ud_8 -0.0810923 1 1  ON 8
ud_9 -0.0558504 1 1  ON 9
 size = 10 parameters 
 cusp = 0
 rcut = 12.1
Parameter     Name      Value
eV_0 -2.31471 1 1  ON 0
eV_1 -1.46542 1 1  ON 1
eV_2 -0.626266 1 1  ON 2
eV_3 -0.0433902 1 1  ON 3
eV_4 0.443582 1 1  ON 4
eV_5 0.836109 1 1  ON 5
eV_6 1.09808 1 1  ON 6
eV_7 1.10768 1 1  ON 7
eV_8 0.750401 1 1  ON 8
eV_9 0.223869 1 1  ON 9
Expected 26 parameters, but found 0 in PolynomialFunctor3D.
Parameter     Name      Value
uuV_0 0 1 1  ON 0
uuV_1 0 1 1  ON 1
uuV_2 0 1 1  ON 2
uuV_3 0 1 1  ON 3
uuV_4 0 1 1  ON 4
uuV_5 0 1 1  ON 5
uuV_6 0 1 1  ON 6
uuV_7 0 1 1  ON 7
uuV_8 0 1 1  ON 8
uuV_9 0 1 1  ON 9
uuV_10 0 1 1  ON 10
uuV_11 0 1 1  ON 11
uuV_12 0 1 1  ON 12
uuV_13 0 1 1  ON 13
uuV_14 0 1 1  ON 14
uuV_15 0 1 1  ON 15
uuV_16 0 1 1  ON 16
uuV_17 0 1 1  ON 17
uuV_18 0 1 1  ON 18
uuV_19 0 1 1  ON 19
uuV_20 0 1 1  ON 20
uuV_21 0 1 1  ON 21
uuV_22 0 1 1  ON 22
uuV_23 0 1 1  ON 23
uuV_24 0 1 1  ON 24
uuV_25 0 1 1  ON 25
Expected 26 parameters, but found 0 in PolynomialFunctor3D.
Parameter     Name      Value
udV_0 0 1 1  ON 0
udV_1 0 1 1  ON 1
udV_2 0 1 1  ON 2
udV_3 0 1 1  ON 3
udV_4 0 1 1  ON 4
udV_5 0 1 1  ON 5
udV_6 0 1 1  ON 6
udV_7 0 1 1  ON 7
udV_8 0 1 1  ON 8
udV_9 0 1 1  ON 9
udV_10 0 1 1  ON 10
udV_11 0 1 1  ON 11
udV_12 0 1 1  ON 12
udV_13 0 1 1  ON 13
udV_14 0 1 1  ON 14
udV_15 0 1 1  ON 15
udV_16 0 1 1  ON 16
udV_17 0 1 1  ON 17
udV_18 0 1 1  ON 18
udV_19 0 1 1  ON 19
udV_20 0 1 1  ON 20
udV_21 0 1 1  ON 21
udV_22 0 1 1  ON 22
udV_23 0 1 1  ON 23
udV_24 0 1 1  ON 24
udV_25 0 1 1  ON 25
  QMCHamiltonian::addOperator Kinetic to H, physical Hamiltonian 
  QMCHamiltonian::addOperator ElecElec to H, physical Hamiltonian 
QMCHamiltonian::addOperatorType added type coulomb named ElecElec
  CoulombAA for ion0 is not created.  Number of particles == 1 and nonPeriodic

  ECPotential builder for pseudopotential 

  Adding pseudopotential for V
   Linear grid  ri=0 rf=10 npts = 10001
    ECPComponentBuilder::buildSemiLocalAndLocal 
    Assuming Hartree unit
   Number of angular momentum channels 3
   Maximum angular momentum channel 2
   Creating a Linear Grid Rmax=1.57
  Using global grid with delta = 0.001
   Making L=2 a local potential with a radial cutoff of 9.999
    Non-local pseudopotential parameters
    Maximum angular mementum = 1
    Number of non-local channels = 2
       l(0)=0
       l(1)=1
    Cutoff radius = 1.57
    Spherical grids and weights: 
                        1                 0                 0       0.08333333333
                       -1   1.224646799e-16                 0       0.08333333333
             0.4472135955       0.894427191                 0       0.08333333333
            -0.4472135955      0.7236067977      0.5257311121       0.08333333333
             0.4472135955      0.2763932023      0.8506508084       0.08333333333
            -0.4472135955     -0.2763932023      0.8506508084       0.08333333333
             0.4472135955     -0.7236067977      0.5257311121       0.08333333333
            -0.4472135955      -0.894427191   1.095357397e-16       0.08333333333
             0.4472135955     -0.7236067977     -0.5257311121       0.08333333333
            -0.4472135955     -0.2763932023     -0.8506508084       0.08333333333
             0.4472135955      0.2763932023     -0.8506508084       0.08333333333
            -0.4472135955      0.7236067977     -0.5257311121       0.08333333333
    Maximum cutoff radius 1.57
  QMCHamiltonian::addOperator LocalECP to H, physical Hamiltonian 

  Using NonLocalECP potential 
    Maximum grid on a sphere for NonLocalECPotential: 12
  QMCHamiltonian::addOperator NonLocalECP to H, physical Hamiltonian 
QMCHamiltonian::addOperatorType added type pseudo named PseudoPot

  QMCHamiltonian::add2WalkerProperty added
    4 to P::PropertyList 
    0 to P::Collectables 
    starting Index of the observables in P::PropertyList = 9
ParticleSetPool::randomize 
<init source="ion0" target="e">
</init>
  Initialization Execution time = 0.6465 secs
=========================================================
 Summary of QMC systems 
=========================================================
ParticleSetPool has: 

  ParticleSet e : 0 8 13 

    13

    u -4.7892888956e-01 -8.2859817669e-01  9.9318893741e-01
    u  1.3427054627e+00  7.0740036834e-01 -1.7859197499e+00
    u -9.8371016252e-01 -7.8962473029e-01  1.8996363768e+00
    u -1.3837590303e-01  9.7083630580e-01  9.0420046029e-01
    u -1.3711446870e+00  1.9628193072e+00  9.1458842769e-01
    u -2.6391146748e-01  1.0614559379e+00  2.9041557189e+00
    u -8.7894067861e-01 -2.7079624905e-01 -1.0626726307e-01
    u  2.8829791054e+00 -3.6815153790e+00  3.2908462363e+00
    d  9.2291817108e-01  2.8402544011e+00  2.9133048236e+00
    d  2.5982317334e+00 -1.6904724213e+00 -1.1553981733e-01
    (... and 3 more particle positions ...)

  ParticleSet ion0 : 0 1 

    1

    V  0.0000000000e+00  0.0000000000e+00  0.0000000000e+00

  Hamiltonian h0
  Kinetic         Kinetic energy
  ElecElec        CoulombAA source/target e

  LocalECP        LocalECPotential: ion0
  NonLocalECP     NonLocalECPotential: ion0

=========================================================
  Start VMC
  File Root V.log.s000 append = no 
=========================================================
  Adding 1 walkers to 0 existing sets
  Total number of walkers: 1.0240000000e+03
  Total weight: 1.0240000000e+03
  Resetting Properties of the walkers 1 x 13

<vmc function="put">
  qmc_counter=0  my_counter=0
  time step      = 1.5000000000e-01
  blocks         = 200
  steps          = 1
  substeps       = 5
  current        = 0
  target samples = 1.0240000000e+03
  walkers/mpi    = 1

  stepsbetweensamples = 200
<parameter name="blocks" condition="int">200</parameter>
<parameter name="blocks_between_recompute" condition="int">0</parameter>
<parameter name="check_properties" condition="int">100</parameter>
<parameter name="checkproperties" condition="int">100</parameter>
<parameter name="current" condition="int">0</parameter>
<parameter name="dmcwalkersperthread" condition="real">1.0000000000e+00</parameter>
<parameter name="maxcpusecs" condition="real">3.6000000000e+05</parameter>
<parameter name="record_configs" condition="int">0</parameter>
<parameter name="record_walkers" condition="int">200</parameter>
<parameter name="recordconfigs" condition="int">0</parameter>
<parameter name="recordwalkers" condition="int">200</parameter>
<parameter name="rewind" condition="int">0</parameter>
<parameter name="samples" condition="real">1.0240000000e+03</parameter>
<parameter name="samplesperthread" condition="real">1.0000000000e+00</parameter>
<parameter name="steps" condition="int">1</parameter>
<parameter name="stepsbetweensamples" condition="int">200</parameter>
<parameter name="store_configs" condition="int">0</parameter>
<parameter name="storeconfigs" condition="int">0</parameter>
<parameter name="sub_steps" condition="int">5</parameter>
<parameter name="substeps" condition="int">5</parameter>
<parameter name="tau" condition="au">1.5000000000e-01</parameter>
<parameter name="time_step" condition="au">1.5000000000e-01</parameter>
<parameter name="timestep" condition="au">1.5000000000e-01</parameter>
<parameter name="use_drift" condition="string">no</parameter>
<parameter name="usedrift" condition="string">no</parameter>
<parameter name="walkers" condition="int">1</parameter>
<parameter name="warmup_steps" condition="int">100</parameter>
<parameter name="warmupsteps" condition="int">100</parameter>
  DumpConfig==false Nothing (configurations, state) will be saved.
  Walker Samples are dumped every 200 steps.
</vmc>
  Initial partition of walkers 0 1 

  Using Particle by Particle moves
  Walker moves without drift
  Total Sample Size   =1024
  Walker distribution on root = 0 1 
  Using Locality Approximation
===== Memory Usage after the buffer registration =====
Available memory on node 0, free + buffers : 83587 MB
Memory footprint by rank 0 on node 0       : 76 MB
==================================================
  Anonymous Buffer size per walker : 6464 Bytes.
MEMORY increase 0 MB VMC::resetRun
====================================================
  SimpleFixedNodeBranch::finalize after a VMC block
    QMC counter        = 0
    time step          = 0.15
    reference energy   = -71.3143
    reference variance = 1.1362
====================================================
  QMC Execution time = 1.5111e+00 secs 
Loop execution max-interations = 20

=========================================================
  Start QMCFixedSampleLinearOptimize
  File Root V.log.s001 append = no 
=========================================================
  Skip QMCDriver::putQMCInfo 
  Resetting Properties of the walkers 1 x 13

=========================================================
  Start VMC
  File Root V.log.s001 append = no 
=========================================================
  Using the current 1 walkers.
  Total number of walkers: 1.0240e+03
  Total weight: 1.0240e+03
  Resetting Properties of the walkers 1 x 13

<vmc function="put">
  qmc_counter=0  my_counter=0
  time step      = 1.5000e-01
  blocks         = 500
  steps          = 1
  substeps       = 5
  current        = 0
  target samples = 5.1200e+05
  walkers/mpi    = 1

  stepsbetweensamples = 1
<parameter name="blocks" condition="int">500</parameter>
<parameter name="blocks_between_recompute" condition="int">0</parameter>
<parameter name="check_properties" condition="int">100</parameter>
<parameter name="checkproperties" condition="int">100</parameter>
<parameter name="current" condition="int">0</parameter>
<parameter name="dmcwalkersperthread" condition="real">5.0000e+02</parameter>
<parameter name="maxcpusecs" condition="real">3.6000e+05</parameter>
<parameter name="record_configs" condition="int">0</parameter>
<parameter name="record_walkers" condition="int">1</parameter>
<parameter name="recordconfigs" condition="int">0</parameter>
<parameter name="recordwalkers" condition="int">1</parameter>
<parameter name="rewind" condition="int">0</parameter>
<parameter name="samples" condition="real">5.1200e+05</parameter>
<parameter name="samplesperthread" condition="real">5.0000e+02</parameter>
<parameter name="steps" condition="int">1</parameter>
<parameter name="stepsbetweensamples" condition="int">1</parameter>
<parameter name="store_configs" condition="int">0</parameter>
<parameter name="storeconfigs" condition="int">0</parameter>
<parameter name="sub_steps" condition="int">5</parameter>
<parameter name="substeps" condition="int">5</parameter>
<parameter name="tau" condition="au">1.5000e-01</parameter>
<parameter name="time_step" condition="au">1.5000e-01</parameter>
<parameter name="timestep" condition="au">1.5000e-01</parameter>
<parameter name="use_drift" condition="string">no</parameter>
<parameter name="usedrift" condition="string">no</parameter>
<parameter name="walkers" condition="int">1</parameter>
<parameter name="warmup_steps" condition="int">0</parameter>
<parameter name="warmupsteps" condition="int">0</parameter>
  DumpConfig==false Nothing (configurations, state) will be saved.
  Walker Samples are dumped every 1 steps.
</vmc>
    Restarting, cummulative properties:
      energy     = -7.1314e+01
      variance   = 0.0000e+00
      r2accepted = 1.0000e-10
      r2proposed = 1.0000e-10
 Using QMCCostFunction::QMCCostFunction
  EstimatorManagerBase::add replace LocalEnergy estimator.
<optimization-report>
<vmc stage="main" blocks="500">
  Cannot make clones again. Use existing 1 clones
  Initial partition of walkers 0 1 

  Using Particle by Particle moves
  Walker moves without drift
  Total Sample Size   =512000
  Walker distribution on root = 0 1 
  Using Locality Approximation
===== Memory Usage after the buffer registration =====
Available memory on node 0, free + buffers : 83564 MB
Memory footprint by rank 0 on node 0       : 76 MB
==================================================
  Anonymous Buffer size per walker : 6464 Bytes.
MEMORY increase 0 MB VMC::resetRun
====================================================
  SimpleFixedNodeBranch::finalize after a VMC block
    QMC counter        = 1
    time step          = 0.15
    reference energy   = -71.3074
    reference variance = 0.996427
====================================================
  Execution time = 3.8744e+00
</vmc>
<opt stage="setup">
  <log>
   Reading configurations from h5FileRoot V.log.s001
  QMCCostFunction is created with 1 threads.
  Using Nonlocal PP in Opt: NonLocalECP
   Number of samples loaded to each thread : 500 
  VMC Eavg = -7.1317e+01
  VMC Evar = 1.0650e+00
  Total weights = 5.1200e+05
  Execution time = 1.8731e+00
  </log>
</opt>
<opt stage="main" walkers="512000">
  <log>

*****************************************
Building overlap and Hamiltonian matrices
*****************************************

Among totally 82 optimized parameters, largest LM parameter change : 1.2687e-01 at parameter 21

******************************************************************************
Init Cost =  -6.7698e+01    New Cost =  -6.7721e+01  Delta Cost =  -2.3557e-02
******************************************************************************

The new set of parameters is valid. Updating the trial wave function!

*****************************************************************************
Applying the update for shift_i =   1.0000e-02     and shift_s =   2.5000e-01
*****************************************************************************
  Execution time = 6.7580e+00
  </log>
  <optVariables href="V.log.s001.opt.xml">
uu_0 2.4550e-01 1 1  ON 0
uu_1 7.9741e-02 1 1  ON 1
uu_2 -2.0798e-02 1 1  ON 2
uu_3 -6.7963e-02 1 1  ON 3
uu_4 -9.5384e-02 1 1  ON 4
uu_5 -1.1952e-01 1 1  ON 5
uu_6 -1.2903e-01 1 1  ON 6
uu_7 -1.1864e-01 1 1  ON 7
uu_8 -7.3126e-02 1 1  ON 8
uu_9 1.2882e-03 1 1  ON 9
ud_0 5.7080e-01 1 1  ON 10
ud_1 2.8070e-01 1 1  ON 11
ud_2 1.3568e-01 1 1  ON 12
ud_3 6.2983e-02 1 1  ON 13
ud_4 1.2464e-02 1 1  ON 14
ud_5 -4.0756e-02 1 1  ON 15
ud_6 -6.8587e-02 1 1  ON 16
ud_7 -9.3262e-02 1 1  ON 17
ud_8 -8.7652e-02 1 1  ON 18
ud_9 -6.0834e-02 1 1  ON 19
eV_0 -2.2902e+00 1 1  ON 20
eV_1 -1.5923e+00 1 1  ON 21
eV_2 -5.7478e-01 1 1  ON 22
eV_3 -3.0602e-03 1 1  ON 23
eV_4 4.5456e-01 1 1  ON 24
eV_5 8.2322e-01 1 1  ON 25
eV_6 1.0761e+00 1 1  ON 26
eV_7 1.1078e+00 1 1  ON 27
eV_8 7.7456e-01 1 1  ON 28
eV_9 2.4197e-01 1 1  ON 29
uuV_0 1.6634e-06 1 1  ON 30
uuV_1 5.5405e-06 1 1  ON 31
uuV_2 1.1179e-06 1 1  ON 32
uuV_3 -3.0205e-06 1 1  ON 33
uuV_4 -5.6876e-07 1 1  ON 34
uuV_5 1.9420e-08 1 1  ON 35
uuV_6 5.5703e-06 1 1  ON 36
uuV_7 2.7946e-06 1 1  ON 37
uuV_8 1.6036e-06 1 1  ON 38
uuV_9 -6.8172e-06 1 1  ON 39
uuV_10 -1.8665e-06 1 1  ON 40
uuV_11 -1.6702e-06 1 1  ON 41
uuV_12 -1.2540e-07 1 1  ON 42
uuV_13 1.5148e-06 1 1  ON 43
uuV_14 1.4547e-07 1 1  ON 44
uuV_15 -5.0800e-09 1 1  ON 45
uuV_16 7.0601e-06 1 1  ON 46
uuV_17 -2.6256e-07 1 1  ON 47
uuV_18 5.5475e-07 1 1  ON 48
uuV_19 -8.7461e-08 1 1  ON 49
uuV_20 -8.7222e-07 1 1  ON 50
uuV_21 6.4997e-09 1 1  ON 51
uuV_22 1.1657e-08 1 1  ON 52
uuV_23 1.9805e-07 1 1  ON 53
uuV_24 -1.7568e-08 1 1  ON 54
uuV_25 -1.0342e-09 1 1  ON 55
udV_0 2.6453e-06 1 1  ON 56
udV_1 1.2684e-05 1 1  ON 57
udV_2 5.1714e-06 1 1  ON 58
udV_3 -5.0229e-06 1 1  ON 59
udV_4 -1.3277e-06 1 1  ON 60
udV_5 -7.3817e-07 1 1  ON 61
udV_6 1.9545e-05 1 1  ON 62
udV_7 -4.1856e-07 1 1  ON 63
udV_8 4.1886e-06 1 1  ON 64
udV_9 -1.8599e-05 1 1  ON 65
udV_10 -3.1218e-06 1 1  ON 66
udV_11 -2.9265e-06 1 1  ON 67
udV_12 -4.1896e-07 1 1  ON 68
udV_13 5.0061e-06 1 1  ON 69
udV_14 1.3684e-07 1 1  ON 70
udV_15 1.7409e-08 1 1  ON 71
udV_16 2.0046e-05 1 1  ON 72
udV_17 -5.8560e-07 1 1  ON 73
udV_18 8.1806e-07 1 1  ON 74
udV_19 -9.2009e-08 1 1  ON 75
udV_20 -4.1747e-06 1 1  ON 76
udV_21 2.0995e-07 1 1  ON 77
udV_22 -1.0089e-08 1 1  ON 78
udV_23 1.0539e-06 1 1  ON 79
udV_24 -9.6302e-08 1 1  ON 80
udV_25 8.4116e-09 1 1  ON 81
  </optVariables>
   Restore the number of walkers to 1, removing 0 walkers.
</opt>
</optimization-report>
  QMC Execution time = 6.7782e+00 secs 
  Reusing QMCFixedSampleLinearOptimize
 Using QMCCostFunction::QMCCostFunction

=========================================================
  Start QMCFixedSampleLinearOptimize
  File Root V.log.s002 append = no 
=========================================================
  Skip QMCDriver::putQMCInfo 
  Resetting Properties of the walkers 1 x 13

=========================================================
  Start VMC
  File Root V.log.s002 append = no 
=========================================================
Using existing walkers 
  Resetting Properties of the walkers 1 x 13

<vmc function="put">
  qmc_counter=1  my_counter=1
  time step      = 1.5000e-01
  blocks         = 500
  steps          = 1
  substeps       = 5
  current        = 0
  target samples = 5.1200e+05
  walkers/mpi    = 1

  stepsbetweensamples = 1
<parameter name="blocks" condition="int">500</parameter>
<parameter name="blocks_between_recompute" condition="int">0</parameter>
<parameter name="check_properties" condition="int">100</parameter>
<parameter name="checkproperties" condition="int">100</parameter>
<parameter name="current" condition="int">0</parameter>
<parameter name="dmcwalkersperthread" condition="real">5.0000e+02</parameter>
<parameter name="maxcpusecs" condition="real">3.6000e+05</parameter>
<parameter name="record_configs" condition="int">0</parameter>
<parameter name="record_walkers" condition="int">1</parameter>
<parameter name="recordconfigs" condition="int">0</parameter>
<parameter name="recordwalkers" condition="int">1</parameter>
<parameter name="rewind" condition="int">0</parameter>
<parameter name="samples" condition="real">5.1200e+05</parameter>
<parameter name="samplesperthread" condition="real">5.0000e+02</parameter>
<parameter name="steps" condition="int">1</parameter>
<parameter name="stepsbetweensamples" condition="int">1</parameter>
<parameter name="store_configs" condition="int">0</parameter>
<parameter name="storeconfigs" condition="int">0</parameter>
<parameter name="sub_steps" condition="int">5</parameter>
<parameter name="substeps" condition="int">5</parameter>
<parameter name="tau" condition="au">1.5000e-01</parameter>
<parameter name="time_step" condition="au">1.5000e-01</parameter>
<parameter name="timestep" condition="au">1.5000e-01</parameter>
<parameter name="use_drift" condition="string">no</parameter>
<parameter name="usedrift" condition="string">no</parameter>
<parameter name="walkers" condition="int">1</parameter>
<parameter name="warmup_steps" condition="int">0</parameter>
<parameter name="warmupsteps" condition="int">0</parameter>
  DumpConfig==false Nothing (configurations, state) will be saved.
  Walker Samples are dumped every 1 steps.
</vmc>
  EstimatorManagerBase::add replace LocalEnergy estimator.
  EstimatorManagerBase::add replace LocalEnergy estimator.
<optimization-report>
<vmc stage="main" blocks="500">
  Cannot make clones again. Use existing 1 clones
  Initial partition of walkers 0 1 
  Using Particle by Particle moves
  Walker moves without drift
  Total Sample Size   =512000
  Walker distribution on root = 0 1 
  Using Locality Approximation
===== Memory Usage after the buffer registration =====
Available memory on node 0, free + buffers : 82436 MB
Memory footprint by rank 0 on node 0       : 97 MB
==================================================
====================================================
  SimpleFixedNodeBranch::finalize after a VMC block
    QMC counter        = 2
    time step          = 0.15
    reference energy   = -71.3193
    reference variance = 0.817767
====================================================
  Execution time = 3.8849e+00
</vmc>
<opt stage="setup">
  <log>
   Reading configurations from h5FileRoot V.log.s002
  QMCCostFunction is created with 1 threads.
  Using Nonlocal PP in Opt: NonLocalECP
   Number of samples loaded to each thread : 500 
  VMC Eavg = -7.1335e+01
  VMC Evar = 9.5960e-01
  Total weights = 5.1200e+05
  Execution time = 1.8835e+00
  </log>
</opt>
<opt stage="main" walkers="512000">
  <log>

*****************************************
Building overlap and Hamiltonian matrices
*****************************************

Among totally 82 optimized parameters, largest LM parameter change : 8.0097e-02 at parameter 10

******************************************************************************
Init Cost =  -6.7720e+01    New Cost =  -6.7721e+01  Delta Cost =  -1.4168e-04
******************************************************************************

The new set of parameters is valid. Updating the trial wave function!

*****************************************************************************
Applying the update for shift_i =   1.0000e-02     and shift_s =   6.2500e-02
*****************************************************************************
  Execution time = 6.7228e+00
  </log>
  <optVariables href="V.log.s002.opt.xml">
uu_0 2.4699e-01 1 1  ON 0
uu_1 8.4920e-02 1 1  ON 1
uu_2 -1.5962e-02 1 1  ON 2
uu_3 -6.2809e-02 1 1  ON 3
uu_4 -9.5961e-02 1 1  ON 4
uu_5 -1.2179e-01 1 1  ON 5
uu_6 -1.3175e-01 1 1  ON 6
uu_7 -1.2268e-01 1 1  ON 7
uu_8 -7.6109e-02 1 1  ON 8
uu_9 -3.6873e-03 1 1  ON 9
ud_0 6.5090e-01 1 1  ON 10
ud_1 3.3684e-01 1 1  ON 11
ud_2 1.5259e-01 1 1  ON 12
ud_3 5.8919e-02 1 1  ON 13
ud_4 -2.3313e-03 1 1  ON 14
ud_5 -5.4416e-02 1 1  ON 15
ud_6 -8.1744e-02 1 1  ON 16
ud_7 -1.0461e-01 1 1  ON 17
ud_8 -9.8051e-02 1 1  ON 18
ud_9 -7.2478e-02 1 1  ON 19
eV_0 -2.2866e+00 1 1  ON 20
eV_1 -1.6714e+00 1 1  ON 21
eV_2 -5.6507e-01 1 1  ON 22
eV_3 5.0941e-02 1 1  ON 23
eV_4 4.6887e-01 1 1  ON 24
eV_5 7.8844e-01 1 1  ON 25
eV_6 1.0678e+00 1 1  ON 26
eV_7 1.1077e+00 1 1  ON 27
eV_8 8.0104e-01 1 1  ON 28
eV_9 2.5914e-01 1 1  ON 29
uuV_0 2.2074e-06 1 1  ON 30
uuV_1 6.3168e-06 1 1  ON 31
uuV_2 1.1121e-06 1 1  ON 32
uuV_3 -3.4586e-06 1 1  ON 33
uuV_4 -5.9254e-07 1 1  ON 34
uuV_5 3.0293e-08 1 1  ON 35
uuV_6 5.7301e-06 1 1  ON 36
uuV_7 3.7554e-06 1 1  ON 37
uuV_8 1.9281e-06 1 1  ON 38
uuV_9 -7.6449e-06 1 1  ON 39
uuV_10 -1.9630e-06 1 1  ON 40
uuV_11 -2.4527e-06 1 1  ON 41
uuV_12 -1.1837e-07 1 1  ON 42
uuV_13 1.4520e-06 1 1  ON 43
uuV_14 1.9520e-07 1 1  ON 44
uuV_15 -1.0179e-08 1 1  ON 45
uuV_16 8.4022e-06 1 1  ON 46
uuV_17 -7.4810e-07 1 1  ON 47
uuV_18 1.1511e-06 1 1  ON 48
uuV_19 -1.5640e-07 1 1  ON 49
uuV_20 -9.6640e-07 1 1  ON 50
uuV_21 -6.7473e-08 1 1  ON 51
uuV_22 2.4798e-08 1 1  ON 52
uuV_23 2.2059e-07 1 1  ON 53
uuV_24 -4.3700e-09 1 1  ON 54
uuV_25 -4.2344e-09 1 1  ON 55
udV_0 3.5237e-06 1 1  ON 56
udV_1 1.4546e-05 1 1  ON 57
udV_2 5.9422e-06 1 1  ON 58
udV_3 -6.0707e-06 1 1  ON 59
udV_4 -1.5415e-06 1 1  ON 60
udV_5 -1.2338e-06 1 1  ON 61
udV_6 2.2133e-05 1 1  ON 62
udV_7 2.5429e-07 1 1  ON 63
udV_8 4.8476e-06 1 1  ON 64
udV_9 -2.1782e-05 1 1  ON 65
udV_10 -3.5874e-06 1 1  ON 66
udV_11 -3.7068e-06 1 1  ON 67
udV_12 -4.5408e-07 1 1  ON 68
udV_13 5.7861e-06 1 1  ON 69
udV_14 1.7785e-07 1 1  ON 70
udV_15 1.5460e-08 1 1  ON 71
udV_16 2.4183e-05 1 1  ON 72
udV_17 -8.9510e-07 1 1  ON 73
udV_18 1.2420e-06 1 1  ON 74
udV_19 -1.5891e-07 1 1  ON 75
udV_20 -5.3190e-06 1 1  ON 76
udV_21 2.2668e-07 1 1  ON 77
udV_22 -4.3273e-09 1 1  ON 78
udV_23 1.4501e-06 1 1  ON 79
udV_24 -1.1982e-07 1 1  ON 80
udV_25 8.9936e-09 1 1  ON 81
  </optVariables>
   Restore the number of walkers to 1, removing 0 walkers.
</opt>
</optimization-report>
  QMC Execution time = 6.7455e+00 secs 
  Reusing QMCFixedSampleLinearOptimize
 Using QMCCostFunction::QMCCostFunction

=========================================================
  Start QMCFixedSampleLinearOptimize
  File Root V.log.s003 append = no 
=========================================================
  Skip QMCDriver::putQMCInfo 
  Resetting Properties of the walkers 1 x 13

=========================================================
  Start VMC
  File Root V.log.s003 append = no 
=========================================================
Using existing walkers 
  Resetting Properties of the walkers 1 x 13

<vmc function="put">
  qmc_counter=2  my_counter=2
  time step      = 1.5000e-01
  blocks         = 500
  steps          = 1
  substeps       = 5
  current        = 0
  target samples = 5.1200e+05
  walkers/mpi    = 1

  stepsbetweensamples = 1
<parameter name="blocks" condition="int">500</parameter>
<parameter name="blocks_between_recompute" condition="int">0</parameter>
<parameter name="check_properties" condition="int">100</parameter>
<parameter name="checkproperties" condition="int">100</parameter>
<parameter name="current" condition="int">0</parameter>
<parameter name="dmcwalkersperthread" condition="real">5.0000e+02</parameter>
<parameter name="maxcpusecs" condition="real">3.6000e+05</parameter>
<parameter name="record_configs" condition="int">0</parameter>
<parameter name="record_walkers" condition="int">1</parameter>
<parameter name="recordconfigs" condition="int">0</parameter>
<parameter name="recordwalkers" condition="int">1</parameter>
<parameter name="rewind" condition="int">0</parameter>
<parameter name="samples" condition="real">5.1200e+05</parameter>
<parameter name="samplesperthread" condition="real">5.0000e+02</parameter>
<parameter name="steps" condition="int">1</parameter>
<parameter name="stepsbetweensamples" condition="int">1</parameter>
<parameter name="store_configs" condition="int">0</parameter>
<parameter name="storeconfigs" condition="int">0</parameter>
<parameter name="sub_steps" condition="int">5</parameter>
<parameter name="substeps" condition="int">5</parameter>
<parameter name="tau" condition="au">1.5000e-01</parameter>
<parameter name="time_step" condition="au">1.5000e-01</parameter>
<parameter name="timestep" condition="au">1.5000e-01</parameter>
<parameter name="use_drift" condition="string">no</parameter>
<parameter name="usedrift" condition="string">no</parameter>
<parameter name="walkers" condition="int">1</parameter>
<parameter name="warmup_steps" condition="int">0</parameter>
<parameter name="warmupsteps" condition="int">0</parameter>
  DumpConfig==false Nothing (configurations, state) will be saved.
  Walker Samples are dumped every 1 steps.
</vmc>
  EstimatorManagerBase::add replace LocalEnergy estimator.
  EstimatorManagerBase::add replace LocalEnergy estimator.
<optimization-report>
<vmc stage="main" blocks="500">
  Cannot make clones again. Use existing 1 clones
  Initial partition of walkers 0 1 
  Using Particle by Particle moves
  Walker moves without drift
  Total Sample Size   =512000
  Walker distribution on root = 0 1 
  Using Locality Approximation
===== Memory Usage after the buffer registration =====
Available memory on node 0, free + buffers : 82432 MB
Memory footprint by rank 0 on node 0       : 100 MB
==================================================
====================================================
  SimpleFixedNodeBranch::finalize after a VMC block
    QMC counter        = 3
    time step          = 0.15
    reference energy   = -71.3092
    reference variance = 1.02869
====================================================
  Execution time = 3.8609e+00
</vmc>
<opt stage="setup">
  <log>
   Reading configurations from h5FileRoot V.log.s003
  QMCCostFunction is created with 1 threads.
  Using Nonlocal PP in Opt: NonLocalECP
   Number of samples loaded to each thread : 500 
  VMC Eavg = -7.1338e+01
  VMC Evar = 1.0096e+00
  Total weights = 5.1200e+05
  Execution time = 1.8814e+00
  </log>
</opt>
<opt stage="main" walkers="512000">
  <log>

*****************************************
Building overlap and Hamiltonian matrices
*****************************************

Among totally 82 optimized parameters, largest LM parameter change : 5.5799e-02 at parameter 10

******************************************************************************
Init Cost =  -6.7721e+01    New Cost =  -6.7721e+01  Delta Cost =   5.2333e-05
******************************************************************************

The new set of parameters is valid. Updating the trial wave function!

*****************************************************************************
Applying the update for shift_i =   1.0000e-02     and shift_s =   1.5625e-02
*****************************************************************************
  Execution time = 6.7309e+00
  </log>
  <optVariables href="V.log.s003.opt.xml">
uu_0 2.4789e-01 1 1  ON 0
uu_1 8.6298e-02 1 1  ON 1
uu_2 -1.0896e-02 1 1  ON 2
uu_3 -5.9445e-02 1 1  ON 3
uu_4 -9.3819e-02 1 1  ON 4
uu_5 -1.2096e-01 1 1  ON 5
uu_6 -1.3351e-01 1 1  ON 6
uu_7 -1.2533e-01 1 1  ON 7
uu_8 -8.9018e-02 1 1  ON 8
uu_9 -9.3049e-03 1 1  ON 9
ud_0 7.0670e-01 1 1  ON 10
ud_1 3.7280e-01 1 1  ON 11
ud_2 1.6412e-01 1 1  ON 12
ud_3 5.5273e-02 1 1  ON 13
ud_4 -1.1750e-02 1 1  ON 14
ud_5 -6.5413e-02 1 1  ON 15
ud_6 -9.0033e-02 1 1  ON 16
ud_7 -1.1253e-01 1 1  ON 17
ud_8 -1.0609e-01 1 1  ON 18
ud_9 -7.1162e-02 1 1  ON 19
eV_0 -2.2962e+00 1 1  ON 20
eV_1 -1.7262e+00 1 1  ON 21
eV_2 -5.6115e-01 1 1  ON 22
eV_3 1.0164e-01 1 1  ON 23
eV_4 4.7772e-01 1 1  ON 24
eV_5 7.5646e-01 1 1  ON 25
eV_6 1.0560e+00 1 1  ON 26
eV_7 1.1113e+00 1 1  ON 27
eV_8 8.2496e-01 1 1  ON 28
eV_9 2.7449e-01 1 1  ON 29
uuV_0 2.5789e-06 1 1  ON 30
uuV_1 6.9617e-06 1 1  ON 31
uuV_2 1.4774e-06 1 1  ON 32
uuV_3 -3.6720e-06 1 1  ON 33
uuV_4 -6.2468e-07 1 1  ON 34
uuV_5 4.4250e-08 1 1  ON 35
uuV_6 7.0211e-06 1 1  ON 36
uuV_7 3.0183e-06 1 1  ON 37
uuV_8 2.4283e-06 1 1  ON 38
uuV_9 -9.1457e-06 1 1  ON 39
uuV_10 -1.9634e-06 1 1  ON 40
uuV_11 -2.8873e-06 1 1  ON 41
uuV_12 -1.7535e-07 1 1  ON 42
uuV_13 2.2320e-06 1 1  ON 43
uuV_14 2.4389e-07 1 1  ON 44
uuV_15 -9.9667e-09 1 1  ON 45
uuV_16 1.0684e-05 1 1  ON 46
uuV_17 -7.4585e-07 1 1  ON 47
uuV_18 1.5506e-06 1 1  ON 48
uuV_19 -2.0719e-07 1 1  ON 49
uuV_20 -1.8633e-06 1 1  ON 50
uuV_21 -7.8963e-08 1 1  ON 51
uuV_22 3.1700e-08 1 1  ON 52
uuV_23 4.9584e-07 1 1  ON 53
uuV_24 -2.0426e-08 1 1  ON 54
uuV_25 -3.8050e-09 1 1  ON 55
udV_0 4.0849e-06 1 1  ON 56
udV_1 1.4630e-05 1 1  ON 57
udV_2 5.8658e-06 1 1  ON 58
udV_3 -6.2893e-06 1 1  ON 59
udV_4 -1.4987e-06 1 1  ON 60
udV_5 -1.5428e-06 1 1  ON 61
udV_6 2.1923e-05 1 1  ON 62
udV_7 5.5890e-07 1 1  ON 63
udV_8 4.8038e-06 1 1  ON 64
udV_9 -2.2136e-05 1 1  ON 65
udV_10 -3.4826e-06 1 1  ON 66
udV_11 -3.9845e-06 1 1  ON 67
udV_12 -3.9953e-07 1 1  ON 68
udV_13 5.7461e-06 1 1  ON 69
udV_14 1.7229e-07 1 1  ON 70
udV_15 1.0390e-08 1 1  ON 71
udV_16 2.4781e-05 1 1  ON 72
udV_17 -1.1977e-06 1 1  ON 73
udV_18 1.6142e-06 1 1  ON 74
udV_19 -2.3089e-07 1 1  ON 75
udV_20 -5.5015e-06 1 1  ON 76
udV_21 1.7665e-07 1 1  ON 77
udV_22 8.2165e-09 1 1  ON 78
udV_23 1.5111e-06 1 1  ON 79
udV_24 -1.0963e-07 1 1  ON 80
udV_25 6.0946e-09 1 1  ON 81
  </optVariables>
   Restore the number of walkers to 1, removing 0 walkers.
</opt>
</optimization-report>
  QMC Execution time = 6.7511e+00 secs 
  Reusing QMCFixedSampleLinearOptimize
 Using QMCCostFunction::QMCCostFunction

=========================================================
  Start QMCFixedSampleLinearOptimize
  File Root V.log.s004 append = no 
=========================================================
  Skip QMCDriver::putQMCInfo 
  Resetting Properties of the walkers 1 x 13

=========================================================
  Start VMC
  File Root V.log.s004 append = no 
=========================================================
Using existing walkers 
  Resetting Properties of the walkers 1 x 13

<vmc function="put">
  qmc_counter=3  my_counter=3
  time step      = 1.5000e-01
  blocks         = 500
  steps          = 1
  substeps       = 5
  current        = 0
  target samples = 5.1200e+05
  walkers/mpi    = 1

  stepsbetweensamples = 1
<parameter name="blocks" condition="int">500</parameter>
<parameter name="blocks_between_recompute" condition="int">0</parameter>
<parameter name="check_properties" condition="int">100</parameter>
<parameter name="checkproperties" condition="int">100</parameter>
<parameter name="current" condition="int">0</parameter>
<parameter name="dmcwalkersperthread" condition="real">5.0000e+02</parameter>
<parameter name="maxcpusecs" condition="real">3.6000e+05</parameter>
<parameter name="record_configs" condition="int">0</parameter>
<parameter name="record_walkers" condition="int">1</parameter>
<parameter name="recordconfigs" condition="int">0</parameter>
<parameter name="recordwalkers" condition="int">1</parameter>
<parameter name="rewind" condition="int">0</parameter>
<parameter name="samples" condition="real">5.1200e+05</parameter>
<parameter name="samplesperthread" condition="real">5.0000e+02</parameter>
<parameter name="steps" condition="int">1</parameter>
<parameter name="stepsbetweensamples" condition="int">1</parameter>
<parameter name="store_configs" condition="int">0</parameter>
<parameter name="storeconfigs" condition="int">0</parameter>
<parameter name="sub_steps" condition="int">5</parameter>
<parameter name="substeps" condition="int">5</parameter>
<parameter name="tau" condition="au">1.5000e-01</parameter>
<parameter name="time_step" condition="au">1.5000e-01</parameter>
<parameter name="timestep" condition="au">1.5000e-01</parameter>
<parameter name="use_drift" condition="string">no</parameter>
<parameter name="usedrift" condition="string">no</parameter>
<parameter name="walkers" condition="int">1</parameter>
<parameter name="warmup_steps" condition="int">0</parameter>
<parameter name="warmupsteps" condition="int">0</parameter>
  DumpConfig==false Nothing (configurations, state) will be saved.
  Walker Samples are dumped every 1 steps.
</vmc>
  EstimatorManagerBase::add replace LocalEnergy estimator.
  EstimatorManagerBase::add replace LocalEnergy estimator.
<optimization-report>
<vmc stage="main" blocks="500">
  Cannot make clones again. Use existing 1 clones
  Initial partition of walkers 0 1 
  Using Particle by Particle moves
  Walker moves without drift
  Total Sample Size   =512000
  Walker distribution on root = 0 1 
  Using Locality Approximation
===== Memory Usage after the buffer registration =====
Available memory on node 0, free + buffers : 82429 MB
Memory footprint by rank 0 on node 0       : 103 MB
==================================================
====================================================
  SimpleFixedNodeBranch::finalize after a VMC block
    QMC counter        = 4
    time step          = 0.15
    reference energy   = -71.3481
    reference variance = 0.868119
====================================================
  Execution time = 3.8881e+00
</vmc>
<opt stage="setup">
  <log>
   Reading configurations from h5FileRoot V.log.s004
  QMCCostFunction is created with 1 threads.
  Using Nonlocal PP in Opt: NonLocalECP
   Number of samples loaded to each thread : 500 
  VMC Eavg = -7.1335e+01
  VMC Evar = 1.0753e+00
  Total weights = 5.1200e+05
  Execution time = 1.8904e+00
  </log>
</opt>
<opt stage="main" walkers="512000">
  <log>

*****************************************
Building overlap and Hamiltonian matrices
*****************************************

Among totally 82 optimized parameters, largest LM parameter change : 4.0043e-02 at parameter 21

******************************************************************************
Init Cost =  -6.7714e+01    New Cost =  -6.7714e+01  Delta Cost =   5.4660e-05
******************************************************************************

The new set of parameters is valid. Updating the trial wave function!

*****************************************************************************
Applying the update for shift_i =   1.0000e-02     and shift_s =   3.9062e-03
*****************************************************************************
  Execution time = 6.7596e+00
  </log>
  <optVariables href="V.log.s004.opt.xml">
uu_0 2.4893e-01 1 1  ON 0
uu_1 8.7695e-02 1 1  ON 1
uu_2 -8.9091e-03 1 1  ON 2
uu_3 -5.5323e-02 1 1  ON 3
uu_4 -8.9138e-02 1 1  ON 4
uu_5 -1.1507e-01 1 1  ON 5
uu_6 -1.2723e-01 1 1  ON 6
uu_7 -1.2224e-01 1 1  ON 7
uu_8 -8.7906e-02 1 1  ON 8
uu_9 -2.0178e-02 1 1  ON 9
ud_0 7.3486e-01 1 1  ON 10
ud_1 3.9471e-01 1 1  ON 11
ud_2 1.7698e-01 1 1  ON 12
ud_3 6.1472e-02 1 1  ON 13
ud_4 -9.0522e-03 1 1  ON 14
ud_5 -6.2703e-02 1 1  ON 15
ud_6 -8.7905e-02 1 1  ON 16
ud_7 -1.1206e-01 1 1  ON 17
ud_8 -1.0483e-01 1 1  ON 18
ud_9 -6.8390e-02 1 1  ON 19
eV_0 -2.3067e+00 1 1  ON 20
eV_1 -1.7662e+00 1 1  ON 21
eV_2 -5.5979e-01 1 1  ON 22
eV_3 1.3913e-01 1 1  ON 23
eV_4 4.8402e-01 1 1  ON 24
eV_5 7.3555e-01 1 1  ON 25
eV_6 1.0462e+00 1 1  ON 26
eV_7 1.1167e+00 1 1  ON 27
eV_8 8.4783e-01 1 1  ON 28
eV_9 2.8783e-01 1 1  ON 29
uuV_0 2.8338e-06 1 1  ON 30
uuV_1 6.8326e-06 1 1  ON 31
uuV_2 1.0368e-06 1 1  ON 32
uuV_3 -3.6875e-06 1 1  ON 33
uuV_4 -5.7809e-07 1 1  ON 34
uuV_5 7.3515e-08 1 1  ON 35
uuV_6 6.2220e-06 1 1  ON 36
uuV_7 3.2233e-06 1 1  ON 37
uuV_8 2.1608e-06 1 1  ON 38
uuV_9 -8.7328e-06 1 1  ON 39
uuV_10 -1.9546e-06 1 1  ON 40
uuV_11 -2.7107e-06 1 1  ON 41
uuV_12 -1.4622e-07 1 1  ON 42
uuV_13 2.0715e-06 1 1  ON 43
uuV_14 2.4496e-07 1 1  ON 44
uuV_15 -1.2504e-08 1 1  ON 45
uuV_16 1.0248e-05 1 1  ON 46
uuV_17 -6.5492e-07 1 1  ON 47
uuV_18 1.3985e-06 1 1  ON 48
uuV_19 -1.8856e-07 1 1  ON 49
uuV_20 -1.7021e-06 1 1  ON 50
uuV_21 -7.4056e-08 1 1  ON 51
uuV_22 2.9830e-08 1 1  ON 52
uuV_23 4.4151e-07 1 1  ON 53
uuV_24 -1.8866e-08 1 1  ON 54
uuV_25 -3.8055e-09 1 1  ON 55
udV_0 4.1398e-06 1 1  ON 56
udV_1 1.4827e-05 1 1  ON 57
udV_2 6.0546e-06 1 1  ON 58
udV_3 -6.3573e-06 1 1  ON 59
udV_4 -1.5150e-06 1 1  ON 60
udV_5 -1.6716e-06 1 1  ON 61
udV_6 2.2396e-05 1 1  ON 62
udV_7 6.3379e-07 1 1  ON 63
udV_8 4.9170e-06 1 1  ON 64
udV_9 -2.2560e-05 1 1  ON 65
udV_10 -3.4707e-06 1 1  ON 66
udV_11 -4.2198e-06 1 1  ON 67
udV_12 -4.0360e-07 1 1  ON 68
udV_13 5.6390e-06 1 1  ON 69
udV_14 1.6624e-07 1 1  ON 70
udV_15 1.1511e-08 1 1  ON 71
udV_16 2.5429e-05 1 1  ON 72
udV_17 -1.5302e-06 1 1  ON 73
udV_18 1.8770e-06 1 1  ON 74
udV_19 -2.5451e-07 1 1  ON 75
udV_20 -5.5293e-06 1 1  ON 76
udV_21 1.4912e-07 1 1  ON 77
udV_22 1.1766e-08 1 1  ON 78
udV_23 1.4774e-06 1 1  ON 79
udV_24 -1.0353e-07 1 1  ON 80
udV_25 5.2145e-09 1 1  ON 81
  </optVariables>
   Restore the number of walkers to 1, removing 0 walkers.
</opt>
</optimization-report>
  QMC Execution time = 6.7786e+00 secs 
  Reusing QMCFixedSampleLinearOptimize
 Using QMCCostFunction::QMCCostFunction

=========================================================
  Start QMCFixedSampleLinearOptimize
  File Root V.log.s005 append = no 
=========================================================
  Skip QMCDriver::putQMCInfo 
  Resetting Properties of the walkers 1 x 13

=========================================================
  Start VMC
  File Root V.log.s005 append = no 
=========================================================
Using existing walkers 
  Resetting Properties of the walkers 1 x 13

<vmc function="put">
  qmc_counter=4  my_counter=4
  time step      = 1.5000e-01
  blocks         = 500
  steps          = 1
  substeps       = 5
  current        = 0
  target samples = 5.1200e+05
  walkers/mpi    = 1

  stepsbetweensamples = 1
<parameter name="blocks" condition="int">500</parameter>
<parameter name="blocks_between_recompute" condition="int">0</parameter>
<parameter name="check_properties" condition="int">100</parameter>
<parameter name="checkproperties" condition="int">100</parameter>
<parameter name="current" condition="int">0</parameter>
<parameter name="dmcwalkersperthread" condition="real">5.0000e+02</parameter>
<parameter name="maxcpusecs" condition="real">3.6000e+05</parameter>
<parameter name="record_configs" condition="int">0</parameter>
<parameter name="record_walkers" condition="int">1</parameter>
<parameter name="recordconfigs" condition="int">0</parameter>
<parameter name="recordwalkers" condition="int">1</parameter>
<parameter name="rewind" condition="int">0</parameter>
<parameter name="samples" condition="real">5.1200e+05</parameter>
<parameter name="samplesperthread" condition="real">5.0000e+02</parameter>
<parameter name="steps" condition="int">1</parameter>
<parameter name="stepsbetweensamples" condition="int">1</parameter>
<parameter name="store_configs" condition="int">0</parameter>
<parameter name="storeconfigs" condition="int">0</parameter>
<parameter name="sub_steps" condition="int">5</parameter>
<parameter name="substeps" condition="int">5</parameter>
<parameter name="tau" condition="au">1.5000e-01</parameter>
<parameter name="time_step" condition="au">1.5000e-01</parameter>
<parameter name="timestep" condition="au">1.5000e-01</parameter>
<parameter name="use_drift" condition="string">no</parameter>
<parameter name="usedrift" condition="string">no</parameter>
<parameter name="walkers" condition="int">1</parameter>
<parameter name="warmup_steps" condition="int">0</parameter>
<parameter name="warmupsteps" condition="int">0</parameter>
  DumpConfig==false Nothing (configurations, state) will be saved.
  Walker Samples are dumped every 1 steps.
</vmc>
  EstimatorManagerBase::add replace LocalEnergy estimator.
  EstimatorManagerBase::add replace LocalEnergy estimator.
<optimization-report>
<vmc stage="main" blocks="500">
  Cannot make clones again. Use existing 1 clones
  Initial partition of walkers 0 1 
  Using Particle by Particle moves
  Walker moves without drift
  Total Sample Size   =512000
  Walker distribution on root = 0 1 
  Using Locality Approximation
===== Memory Usage after the buffer registration =====
Available memory on node 0, free + buffers : 82425 MB
Memory footprint by rank 0 on node 0       : 106 MB
==================================================
====================================================
  SimpleFixedNodeBranch::finalize after a VMC block
    QMC counter        = 5
    time step          = 0.15
    reference energy   = -71.395
    reference variance = 1.8523
====================================================
  Execution time = 3.9070e+00
</vmc>
<opt stage="setup">
  <log>
   Reading configurations from h5FileRoot V.log.s005
  QMCCostFunction is created with 1 threads.
  Using Nonlocal PP in Opt: NonLocalECP
   Number of samples loaded to each thread : 500 
  VMC Eavg = -7.1336e+01
  VMC Evar = 1.6558e+00
  Total weights = 5.1200e+05
  Execution time = 1.8973e+00
  </log>
</opt>
<opt stage="main" walkers="512000">
  <log>

*****************************************
Building overlap and Hamiltonian matrices
*****************************************

Among totally 82 optimized parameters, largest LM parameter change : 4.0559e-02 at parameter 21

******************************************************************************
Init Cost =  -6.7686e+01    New Cost =  -6.7688e+01  Delta Cost =  -1.9567e-03
******************************************************************************

The new set of parameters is valid. Updating the trial wave function!

*****************************************************************************
Applying the update for shift_i =   1.0000e-02     and shift_s =   3.9062e-03
*****************************************************************************
  Execution time = 6.7963e+00
  </log>
  <optVariables href="V.log.s005.opt.xml">
uu_0 2.5407e-01 1 1  ON 0
uu_1 9.0586e-02 1 1  ON 1
uu_2 -7.6443e-03 1 1  ON 2
uu_3 -5.3942e-02 1 1  ON 3
uu_4 -8.5017e-02 1 1  ON 4
uu_5 -1.0631e-01 1 1  ON 5
uu_6 -1.1956e-01 1 1  ON 6
uu_7 -1.1931e-01 1 1  ON 7
uu_8 -8.7250e-02 1 1  ON 8
uu_9 -2.7931e-02 1 1  ON 9
ud_0 7.5139e-01 1 1  ON 10
ud_1 4.0654e-01 1 1  ON 11
ud_2 1.8347e-01 1 1  ON 12
ud_3 6.6639e-02 1 1  ON 13
ud_4 -3.2722e-03 1 1  ON 14
ud_5 -5.5422e-02 1 1  ON 15
ud_6 -8.0016e-02 1 1  ON 16
ud_7 -1.0444e-01 1 1  ON 17
ud_8 -9.7541e-02 1 1  ON 18
ud_9 -7.5852e-02 1 1  ON 19
eV_0 -2.3205e+00 1 1  ON 20
eV_1 -1.8068e+00 1 1  ON 21
eV_2 -5.5523e-01 1 1  ON 22
eV_3 1.7157e-01 1 1  ON 23
eV_4 4.9715e-01 1 1  ON 24
eV_5 7.2124e-01 1 1  ON 25
eV_6 1.0327e+00 1 1  ON 26
eV_7 1.1182e+00 1 1  ON 27
eV_8 8.6931e-01 1 1  ON 28
eV_9 3.0052e-01 1 1  ON 29
uuV_0 2.7839e-06 1 1  ON 30
uuV_1 7.2128e-06 1 1  ON 31
uuV_2 1.4662e-06 1 1  ON 32
uuV_3 -3.5218e-06 1 1  ON 33
uuV_4 -5.7572e-07 1 1  ON 34
uuV_5 1.3685e-07 1 1  ON 35
uuV_6 7.1207e-06 1 1  ON 36
uuV_7 3.4438e-06 1 1  ON 37
uuV_8 2.4242e-06 1 1  ON 38
uuV_9 -9.4392e-06 1 1  ON 39
uuV_10 -1.7910e-06 1 1  ON 40
uuV_11 -3.3535e-06 1 1  ON 41
uuV_12 -1.3168e-07 1 1  ON 42
uuV_13 1.7851e-06 1 1  ON 43
uuV_14 2.2478e-07 1 1  ON 44
uuV_15 -1.1866e-08 1 1  ON 45
uuV_16 1.1558e-05 1 1  ON 46
uuV_17 -1.4865e-06 1 1  ON 47
uuV_18 2.0344e-06 1 1  ON 48
uuV_19 -2.6244e-07 1 1  ON 49
uuV_20 -1.7388e-06 1 1  ON 50
uuV_21 -1.3249e-07 1 1  ON 51
uuV_22 3.9440e-08 1 1  ON 52
uuV_23 4.0607e-07 1 1  ON 53
uuV_24 -6.7059e-09 1 1  ON 54
uuV_25 -5.5685e-09 1 1  ON 55
udV_0 4.1417e-06 1 1  ON 56
udV_1 1.4560e-05 1 1  ON 57
udV_2 6.2314e-06 1 1  ON 58
udV_3 -6.1089e-06 1 1  ON 59
udV_4 -1.4900e-06 1 1  ON 60
udV_5 -1.7308e-06 1 1  ON 61
udV_6 2.2080e-05 1 1  ON 62
udV_7 1.1068e-06 1 1  ON 63
udV_8 5.0834e-06 1 1  ON 64
udV_9 -2.2401e-05 1 1  ON 65
udV_10 -3.1841e-06 1 1  ON 66
udV_11 -4.6837e-06 1 1  ON 67
udV_12 -4.1003e-07 1 1  ON 68
udV_13 5.3521e-06 1 1  ON 69
udV_14 2.0757e-07 1 1  ON 70
udV_15 8.3012e-09 1 1  ON 71
udV_16 2.5435e-05 1 1  ON 72
udV_17 -1.8131e-06 1 1  ON 73
udV_18 2.1647e-06 1 1  ON 74
udV_19 -2.7401e-07 1 1  ON 75
udV_20 -5.4878e-06 1 1  ON 76
udV_21 1.2542e-07 1 1  ON 77
udV_22 1.3997e-08 1 1  ON 78
udV_23 1.4616e-06 1 1  ON 79
udV_24 -1.0531e-07 1 1  ON 80
udV_25 5.7282e-09 1 1  ON 81
  </optVariables>
   Restore the number of walkers to 1, removing 0 walkers.
</opt>
</optimization-report>
  QMC Execution time = 6.8147e+00 secs 
  Reusing QMCFixedSampleLinearOptimize
 Using QMCCostFunction::QMCCostFunction

=========================================================
  Start QMCFixedSampleLinearOptimize
  File Root V.log.s006 append = no 
=========================================================
  Skip QMCDriver::putQMCInfo 
  Resetting Properties of the walkers 1 x 13

=========================================================
  Start VMC
  File Root V.log.s006 append = no 
=========================================================
Using existing walkers 
  Resetting Properties of the walkers 1 x 13

<vmc function="put">
  qmc_counter=5  my_counter=5
  time step      = 1.5000e-01
  blocks         = 500
  steps          = 1
  substeps       = 5
  current        = 0
  target samples = 5.1200e+05
  walkers/mpi    = 1

  stepsbetweensamples = 1
<parameter name="blocks" condition="int">500</parameter>
<parameter name="blocks_between_recompute" condition="int">0</parameter>
<parameter name="check_properties" condition="int">100</parameter>
<parameter name="checkproperties" condition="int">100</parameter>
<parameter name="current" condition="int">0</parameter>
<parameter name="dmcwalkersperthread" condition="real">5.0000e+02</parameter>
<parameter name="maxcpusecs" condition="real">3.6000e+05</parameter>
<parameter name="record_configs" condition="int">0</parameter>
<parameter name="record_walkers" condition="int">1</parameter>
<parameter name="recordconfigs" condition="int">0</parameter>
<parameter name="recordwalkers" condition="int">1</parameter>
<parameter name="rewind" condition="int">0</parameter>
<parameter name="samples" condition="real">5.1200e+05</parameter>
<parameter name="samplesperthread" condition="real">5.0000e+02</parameter>
<parameter name="steps" condition="int">1</parameter>
<parameter name="stepsbetweensamples" condition="int">1</parameter>
<parameter name="store_configs" condition="int">0</parameter>
<parameter name="storeconfigs" condition="int">0</parameter>
<parameter name="sub_steps" condition="int">5</parameter>
<parameter name="substeps" condition="int">5</parameter>
<parameter name="tau" condition="au">1.5000e-01</parameter>
<parameter name="time_step" condition="au">1.5000e-01</parameter>
<parameter name="timestep" condition="au">1.5000e-01</parameter>
<parameter name="use_drift" condition="string">no</parameter>
<parameter name="usedrift" condition="string">no</parameter>
<parameter name="walkers" condition="int">1</parameter>
<parameter name="warmup_steps" condition="int">0</parameter>
<parameter name="warmupsteps" condition="int">0</parameter>
  DumpConfig==false Nothing (configurations, state) will be saved.
  Walker Samples are dumped every 1 steps.
</vmc>
  EstimatorManagerBase::add replace LocalEnergy estimator.
  EstimatorManagerBase::add replace LocalEnergy estimator.
<optimization-report>
<vmc stage="main" blocks="500">
  Cannot make clones again. Use existing 1 clones
  Initial partition of walkers 0 1 
  Using Particle by Particle moves
  Walker moves without drift
  Total Sample Size   =512000
  Walker distribution on root = 0 1 
  Using Locality Approximation
===== Memory Usage after the buffer registration =====
Available memory on node 0, free + buffers : 82422 MB
Memory footprint by rank 0 on node 0       : 109 MB
==================================================
====================================================
  SimpleFixedNodeBranch::finalize after a VMC block
    QMC counter        = 6
    time step          = 0.15
    reference energy   = -71.3157
    reference variance = 0.923274
====================================================
  Execution time = 3.9019e+00
</vmc>
<opt stage="setup">
  <log>
   Reading configurations from h5FileRoot V.log.s006
  QMCCostFunction is created with 1 threads.
  Using Nonlocal PP in Opt: NonLocalECP
   Number of samples loaded to each thread : 500 
  VMC Eavg = -7.1338e+01
  VMC Evar = 1.0234e+00
  Total weights = 5.1200e+05
  Execution time = 1.9068e+00
  </log>
</opt>
<opt stage="main" walkers="512000">
  <log>

*****************************************
Building overlap and Hamiltonian matrices
*****************************************

Among totally 82 optimized parameters, largest LM parameter change : 2.9200e-02 at parameter 25

******************************************************************************
Init Cost =  -6.7720e+01    New Cost =  -6.7720e+01  Delta Cost =  -5.7737e-04
******************************************************************************

The new set of parameters is valid. Updating the trial wave function!

*****************************************************************************
Applying the update for shift_i =   1.0000e-02     and shift_s =   3.9062e-03
*****************************************************************************
  Execution time = 6.7662e+00
  </log>
  <optVariables href="V.log.s006.opt.xml">
uu_0 2.5479e-01 1 1  ON 0
uu_1 9.1369e-02 1 1  ON 1
uu_2 -8.3066e-03 1 1  ON 2
uu_3 -5.5572e-02 1 1  ON 3
uu_4 -8.8060e-02 1 1  ON 4
uu_5 -1.1432e-01 1 1  ON 5
uu_6 -1.2693e-01 1 1  ON 6
uu_7 -1.2494e-01 1 1  ON 7
uu_8 -9.1250e-02 1 1  ON 8
uu_9 -2.3797e-02 1 1  ON 9
ud_0 7.5991e-01 1 1  ON 10
ud_1 4.1208e-01 1 1  ON 11
ud_2 1.8501e-01 1 1  ON 12
ud_3 6.3687e-02 1 1  ON 13
ud_4 -7.3053e-03 1 1  ON 14
ud_5 -5.9083e-02 1 1  ON 15
ud_6 -8.4360e-02 1 1  ON 16
ud_7 -1.0787e-01 1 1  ON 17
ud_8 -1.0275e-01 1 1  ON 18
ud_9 -6.5380e-02 1 1  ON 19
eV_0 -2.3395e+00 1 1  ON 20
eV_1 -1.8305e+00 1 1  ON 21
eV_2 -5.5226e-01 1 1  ON 22
eV_3 1.9570e-01 1 1  ON 23
eV_4 5.0215e-01 1 1  ON 24
eV_5 6.9204e-01 1 1  ON 25
eV_6 1.0195e+00 1 1  ON 26
eV_7 1.1250e+00 1 1  ON 27
eV_8 8.9173e-01 1 1  ON 28
eV_9 3.1999e-01 1 1  ON 29
uuV_0 2.8591e-06 1 1  ON 30
uuV_1 7.0844e-06 1 1  ON 31
uuV_2 1.2196e-06 1 1  ON 32
uuV_3 -3.6716e-06 1 1  ON 33
uuV_4 -5.6837e-07 1 1  ON 34
uuV_5 4.7746e-08 1 1  ON 35
uuV_6 6.7713e-06 1 1  ON 36
uuV_7 3.1677e-06 1 1  ON 37
uuV_8 2.2405e-06 1 1  ON 38
uuV_9 -9.1638e-06 1 1  ON 39
uuV_10 -1.8734e-06 1 1  ON 40
uuV_11 -2.9283e-06 1 1  ON 41
uuV_12 -1.5567e-07 1 1  ON 42
uuV_13 1.8947e-06 1 1  ON 43
uuV_14 2.4180e-07 1 1  ON 44
uuV_15 -1.1070e-08 1 1  ON 45
uuV_16 1.0930e-05 1 1  ON 46
uuV_17 -1.0385e-06 1 1  ON 47
uuV_18 1.6501e-06 1 1  ON 48
uuV_19 -1.9438e-07 1 1  ON 49
uuV_20 -1.6964e-06 1 1  ON 50
uuV_21 -1.1190e-07 1 1  ON 51
uuV_22 3.2834e-08 1 1  ON 52
uuV_23 4.1070e-07 1 1  ON 53
uuV_24 -1.0383e-08 1 1  ON 54
uuV_25 -4.9541e-09 1 1  ON 55
udV_0 4.2507e-06 1 1  ON 56
udV_1 1.4932e-05 1 1  ON 57
udV_2 6.1139e-06 1 1  ON 58
udV_3 -6.5158e-06 1 1  ON 59
udV_4 -1.5258e-06 1 1  ON 60
udV_5 -1.7614e-06 1 1  ON 61
udV_6 2.2504e-05 1 1  ON 62
udV_7 4.4551e-07 1 1  ON 63
udV_8 4.9865e-06 1 1  ON 64
udV_9 -2.2667e-05 1 1  ON 65
udV_10 -3.4931e-06 1 1  ON 66
udV_11 -4.0501e-06 1 1  ON 67
udV_12 -4.3311e-07 1 1  ON 68
udV_13 5.8804e-06 1 1  ON 69
udV_14 1.9952e-07 1 1  ON 70
udV_15 1.0578e-08 1 1  ON 71
udV_16 2.5170e-05 1 1  ON 72
udV_17 -1.0498e-06 1 1  ON 73
udV_18 1.5510e-06 1 1  ON 74
udV_19 -2.1508e-07 1 1  ON 75
udV_20 -5.5664e-06 1 1  ON 76
udV_21 1.8997e-07 1 1  ON 77
udV_22 5.1219e-09 1 1  ON 78
udV_23 1.4523e-06 1 1  ON 79
udV_24 -1.0943e-07 1 1  ON 80
udV_25 6.5578e-09 1 1  ON 81
  </optVariables>
   Restore the number of walkers to 1, removing 0 walkers.
</opt>
</optimization-report>
  QMC Execution time = 7.2343e+00 secs 
  Reusing QMCFixedSampleLinearOptimize
 Using QMCCostFunction::QMCCostFunction

=========================================================
  Start QMCFixedSampleLinearOptimize
  File Root V.log.s007 append = no 
=========================================================
  Skip QMCDriver::putQMCInfo 
  Resetting Properties of the walkers 1 x 13

=========================================================
  Start VMC
  File Root V.log.s007 append = no 
=========================================================
Using existing walkers 
  Resetting Properties of the walkers 1 x 13

<vmc function="put">
  qmc_counter=6  my_counter=6
  time step      = 1.5000e-01
  blocks         = 500
  steps          = 1
  substeps       = 5
  current        = 0
  target samples = 5.1200e+05
  walkers/mpi    = 1

  stepsbetweensamples = 1
<parameter name="blocks" condition="int">500</parameter>
<parameter name="blocks_between_recompute" condition="int">0</parameter>
<parameter name="check_properties" condition="int">100</parameter>
<parameter name="checkproperties" condition="int">100</parameter>
<parameter name="current" condition="int">0</parameter>
<parameter name="dmcwalkersperthread" condition="real">5.0000e+02</parameter>
<parameter name="maxcpusecs" condition="real">3.6000e+05</parameter>
<parameter name="record_configs" condition="int">0</parameter>
<parameter name="record_walkers" condition="int">1</parameter>
<parameter name="recordconfigs" condition="int">0</parameter>
<parameter name="recordwalkers" condition="int">1</parameter>
<parameter name="rewind" condition="int">0</parameter>
<parameter name="samples" condition="real">5.1200e+05</parameter>
<parameter name="samplesperthread" condition="real">5.0000e+02</parameter>
<parameter name="steps" condition="int">1</parameter>
<parameter name="stepsbetweensamples" condition="int">1</parameter>
<parameter name="store_configs" condition="int">0</parameter>
<parameter name="storeconfigs" condition="int">0</parameter>
<parameter name="sub_steps" condition="int">5</parameter>
<parameter name="substeps" condition="int">5</parameter>
<parameter name="tau" condition="au">1.5000e-01</parameter>
<parameter name="time_step" condition="au">1.5000e-01</parameter>
<parameter name="timestep" condition="au">1.5000e-01</parameter>
<parameter name="use_drift" condition="string">no</parameter>
<parameter name="usedrift" condition="string">no</parameter>
<parameter name="walkers" condition="int">1</parameter>
<parameter name="warmup_steps" condition="int">0</parameter>
<parameter name="warmupsteps" condition="int">0</parameter>
  DumpConfig==false Nothing (configurations, state) will be saved.
  Walker Samples are dumped every 1 steps.
</vmc>
  EstimatorManagerBase::add replace LocalEnergy estimator.
  EstimatorManagerBase::add replace LocalEnergy estimator.
<optimization-report>
<vmc stage="main" blocks="500">
  Cannot make clones again. Use existing 1 clones
  Initial partition of walkers 0 1 
  Using Particle by Particle moves
  Walker moves without drift
  Total Sample Size   =512000
  Walker distribution on root = 0 1 
  Using Locality Approximation
===== Memory Usage after the buffer registration =====
Available memory on node 0, free + buffers : 82418 MB
Memory footprint by rank 0 on node 0       : 113 MB
==================================================
====================================================
  SimpleFixedNodeBranch::finalize after a VMC block
    QMC counter        = 7
    time step          = 0.15
    reference energy   = -71.3607
    reference variance = 0.991639
====================================================
  Execution time = 3.9473e+00
</vmc>
<opt stage="setup">
  <log>
   Reading configurations from h5FileRoot V.log.s007
  QMCCostFunction is created with 1 threads.
  Using Nonlocal PP in Opt: NonLocalECP
   Number of samples loaded to each thread : 500 
  VMC Eavg = -7.1339e+01
  VMC Evar = 1.0386e+00
  Total weights = 5.1200e+05
  Execution time = 1.9165e+00
  </log>
</opt>
<opt stage="main" walkers="512000">
  <log>

*****************************************
Building overlap and Hamiltonian matrices
*****************************************

Among totally 82 optimized parameters, largest LM parameter change : 2.2157e-02 at parameter 25

******************************************************************************
Init Cost =  -6.7720e+01    New Cost =  -6.7720e+01  Delta Cost =  -4.2501e-05
******************************************************************************

The new set of parameters is valid. Updating the trial wave function!

*****************************************************************************
Applying the update for shift_i =   1.0000e-02     and shift_s =   3.9062e-03
*****************************************************************************
  Execution time = 6.8185e+00
  </log>
  <optVariables href="V.log.s007.opt.xml">
uu_0 2.5112e-01 1 1  ON 0
uu_1 8.3883e-02 1 1  ON 1
uu_2 -1.8223e-02 1 1  ON 2
uu_3 -6.4775e-02 1 1  ON 3
uu_4 -9.6037e-02 1 1  ON 4
uu_5 -1.2039e-01 1 1  ON 5
uu_6 -1.3108e-01 1 1  ON 6
uu_7 -1.2638e-01 1 1  ON 7
uu_8 -9.4312e-02 1 1  ON 8
uu_9 -1.5599e-02 1 1  ON 9
ud_0 7.7315e-01 1 1  ON 10
ud_1 4.2124e-01 1 1  ON 11
ud_2 1.9094e-01 1 1  ON 12
ud_3 6.8052e-02 1 1  ON 13
ud_4 -3.2654e-03 1 1  ON 14
ud_5 -5.5441e-02 1 1  ON 15
ud_6 -8.4459e-02 1 1  ON 16
ud_7 -1.1443e-01 1 1  ON 17
ud_8 -1.1385e-01 1 1  ON 18
ud_9 -7.4663e-02 1 1  ON 19
eV_0 -2.3573e+00 1 1  ON 20
eV_1 -1.8499e+00 1 1  ON 21
eV_2 -5.5742e-01 1 1  ON 22
eV_3 2.1703e-01 1 1  ON 23
eV_4 5.0953e-01 1 1  ON 24
eV_5 6.6989e-01 1 1  ON 25
eV_6 1.0160e+00 1 1  ON 26
eV_7 1.1283e+00 1 1  ON 27
eV_8 9.0669e-01 1 1  ON 28
eV_9 3.3445e-01 1 1  ON 29
uuV_0 2.9951e-06 1 1  ON 30
uuV_1 7.3119e-06 1 1  ON 31
uuV_2 9.5640e-07 1 1  ON 32
uuV_3 -4.0229e-06 1 1  ON 33
uuV_4 -6.3644e-07 1 1  ON 34
uuV_5 9.4993e-09 1 1  ON 35
uuV_6 6.8462e-06 1 1  ON 36
uuV_7 2.8772e-06 1 1  ON 37
uuV_8 2.0796e-06 1 1  ON 38
uuV_9 -9.2354e-06 1 1  ON 39
uuV_10 -2.2457e-06 1 1  ON 40
uuV_11 -2.2588e-06 1 1  ON 41
uuV_12 -1.8229e-07 1 1  ON 42
uuV_13 2.3564e-06 1 1  ON 43
uuV_14 2.5062e-07 1 1  ON 44
uuV_15 -9.9946e-09 1 1  ON 45
uuV_16 1.0578e-05 1 1  ON 46
uuV_17 -1.7727e-07 1 1  ON 47
uuV_18 9.0454e-07 1 1  ON 48
uuV_19 -1.1426e-07 1 1  ON 49
uuV_20 -1.7901e-06 1 1  ON 50
uuV_21 -1.9846e-08 1 1  ON 51
uuV_22 1.8706e-08 1 1  ON 52
uuV_23 4.2725e-07 1 1  ON 53
uuV_24 -2.5924e-08 1 1  ON 54
uuV_25 -2.1408e-09 1 1  ON 55
udV_0 4.4294e-06 1 1  ON 56
udV_1 1.4810e-05 1 1  ON 57
udV_2 5.8888e-06 1 1  ON 58
udV_3 -6.4831e-06 1 1  ON 59
udV_4 -1.4941e-06 1 1  ON 60
udV_5 -1.7647e-06 1 1  ON 61
udV_6 2.2131e-05 1 1  ON 62
udV_7 5.0886e-07 1 1  ON 63
udV_8 4.8253e-06 1 1  ON 64
udV_9 -2.2507e-05 1 1  ON 65
udV_10 -3.4672e-06 1 1  ON 66
udV_11 -4.0631e-06 1 1  ON 67
udV_12 -3.9477e-07 1 1  ON 68
udV_13 5.7512e-06 1 1  ON 69
udV_14 1.7037e-07 1 1  ON 70
udV_15 1.0226e-08 1 1  ON 71
udV_16 2.5410e-05 1 1  ON 72
udV_17 -1.2915e-06 1 1  ON 73
udV_18 1.7338e-06 1 1  ON 74
udV_19 -2.4945e-07 1 1  ON 75
udV_20 -5.6794e-06 1 1  ON 76
udV_21 1.7452e-07 1 1  ON 77
udV_22 9.3192e-09 1 1  ON 78
udV_23 1.5335e-06 1 1  ON 79
udV_24 -1.1262e-07 1 1  ON 80
udV_25 6.4949e-09 1 1  ON 81
  </optVariables>
   Restore the number of walkers to 1, removing 0 walkers.
</opt>
</optimization-report>
  QMC Execution time = 6.8397e+00 secs 
  Reusing QMCFixedSampleLinearOptimize
 Using QMCCostFunction::QMCCostFunction

=========================================================
  Start QMCFixedSampleLinearOptimize
  File Root V.log.s008 append = no 
=========================================================
  Skip QMCDriver::putQMCInfo 
  Resetting Properties of the walkers 1 x 13

=========================================================
  Start VMC
  File Root V.log.s008 append = no 
=========================================================
Using existing walkers 
  Resetting Properties of the walkers 1 x 13

<vmc function="put">
  qmc_counter=7  my_counter=7
  time step      = 1.5000e-01
  blocks         = 500
  steps          = 1
  substeps       = 5
  current        = 0
  target samples = 5.1200e+05
  walkers/mpi    = 1

  stepsbetweensamples = 1
<parameter name="blocks" condition="int">500</parameter>
<parameter name="blocks_between_recompute" condition="int">0</parameter>
<parameter name="check_properties" condition="int">100</parameter>
<parameter name="checkproperties" condition="int">100</parameter>
<parameter name="current" condition="int">0</parameter>
<parameter name="dmcwalkersperthread" condition="real">5.0000e+02</parameter>
<parameter name="maxcpusecs" condition="real">3.6000e+05</parameter>
<parameter name="record_configs" condition="int">0</parameter>
<parameter name="record_walkers" condition="int">1</parameter>
<parameter name="recordconfigs" condition="int">0</parameter>
<parameter name="recordwalkers" condition="int">1</parameter>
<parameter name="rewind" condition="int">0</parameter>
<parameter name="samples" condition="real">5.1200e+05</parameter>
<parameter name="samplesperthread" condition="real">5.0000e+02</parameter>
<parameter name="steps" condition="int">1</parameter>
<parameter name="stepsbetweensamples" condition="int">1</parameter>
<parameter name="store_configs" condition="int">0</parameter>
<parameter name="storeconfigs" condition="int">0</parameter>
<parameter name="sub_steps" condition="int">5</parameter>
<parameter name="substeps" condition="int">5</parameter>
<parameter name="tau" condition="au">1.5000e-01</parameter>
<parameter name="time_step" condition="au">1.5000e-01</parameter>
<parameter name="timestep" condition="au">1.5000e-01</parameter>
<parameter name="use_drift" condition="string">no</parameter>
<parameter name="usedrift" condition="string">no</parameter>
<parameter name="walkers" condition="int">1</parameter>
<parameter name="warmup_steps" condition="int">0</parameter>
<parameter name="warmupsteps" condition="int">0</parameter>
  DumpConfig==false Nothing (configurations, state) will be saved.
  Walker Samples are dumped every 1 steps.
</vmc>
  EstimatorManagerBase::add replace LocalEnergy estimator.
  EstimatorManagerBase::add replace LocalEnergy estimator.
<optimization-report>
<vmc stage="main" blocks="500">
  Cannot make clones again. Use existing 1 clones
  Initial partition of walkers 0 1 
  Using Particle by Particle moves
  Walker moves without drift
  Total Sample Size   =512000
  Walker distribution on root = 0 1 
  Using Locality Approximation
===== Memory Usage after the buffer registration =====
Available memory on node 0, free + buffers : 82414 MB
Memory footprint by rank 0 on node 0       : 116 MB
==================================================
====================================================
  SimpleFixedNodeBranch::finalize after a VMC block
    QMC counter        = 8
    time step          = 0.15
    reference energy   = -71.3459
    reference variance = 1.02512
====================================================
  Execution time = 3.8951e+00
</vmc>
<opt stage="setup">
  <log>
   Reading configurations from h5FileRoot V.log.s008
  QMCCostFunction is created with 1 threads.
  Using Nonlocal PP in Opt: NonLocalECP
   Number of samples loaded to each thread : 500 
  VMC Eavg = -7.1334e+01
  VMC Evar = 1.0445e+00
  Total weights = 5.1200e+05
  Execution time = 1.8883e+00
  </log>
</opt>
<opt stage="main" walkers="512000">
  <log>

*****************************************
Building overlap and Hamiltonian matrices
*****************************************

Among totally 82 optimized parameters, largest LM parameter change : 2.2086e-02 at parameter 28

******************************************************************************
Init Cost =  -6.7715e+01    New Cost =  -6.7715e+01  Delta Cost =   1.7372e-04
******************************************************************************

The new set of parameters is valid. Updating the trial wave function!

*****************************************************************************
Applying the update for shift_i =   1.0000e-02     and shift_s =   3.9062e-03
*****************************************************************************
  Execution time = 6.7510e+00
  </log>
  <optVariables href="V.log.s008.opt.xml">
uu_0 2.4491e-01 1 1  ON 0
uu_1 8.1123e-02 1 1  ON 1
uu_2 -1.8108e-02 1 1  ON 2
uu_3 -6.2473e-02 1 1  ON 3
uu_4 -9.2802e-02 1 1  ON 4
uu_5 -1.1833e-01 1 1  ON 5
uu_6 -1.2870e-01 1 1  ON 6
uu_7 -1.2782e-01 1 1  ON 7
uu_8 -8.9814e-02 1 1  ON 8
uu_9 -1.1650e-02 1 1  ON 9
ud_0 7.7683e-01 1 1  ON 10
ud_1 4.2495e-01 1 1  ON 11
ud_2 1.9498e-01 1 1  ON 12
ud_3 7.4640e-02 1 1  ON 13
ud_4 5.4584e-03 1 1  ON 14
ud_5 -4.5056e-02 1 1  ON 15
ud_6 -7.2324e-02 1 1  ON 16
ud_7 -1.0630e-01 1 1  ON 17
ud_8 -1.0726e-01 1 1  ON 18
ud_9 -7.5203e-02 1 1  ON 19
eV_0 -2.3721e+00 1 1  ON 20
eV_1 -1.8695e+00 1 1  ON 21
eV_2 -5.5692e-01 1 1  ON 22
eV_3 2.3196e-01 1 1  ON 23
eV_4 5.1694e-01 1 1  ON 24
eV_5 6.5262e-01 1 1  ON 25
eV_6 1.0112e+00 1 1  ON 26
eV_7 1.1283e+00 1 1  ON 27
eV_8 9.2878e-01 1 1  ON 28
eV_9 3.4970e-01 1 1  ON 29
uuV_0 2.8937e-06 1 1  ON 30
uuV_1 7.2510e-06 1 1  ON 31
uuV_2 1.2231e-06 1 1  ON 32
uuV_3 -3.6706e-06 1 1  ON 33
uuV_4 -5.6910e-07 1 1  ON 34
uuV_5 7.8560e-08 1 1  ON 35
uuV_6 7.0834e-06 1 1  ON 36
uuV_7 3.0399e-06 1 1  ON 37
uuV_8 1.9894e-06 1 1  ON 38
uuV_9 -9.4932e-06 1 1  ON 39
uuV_10 -1.8993e-06 1 1  ON 40
uuV_11 -2.6929e-06 1 1  ON 41
uuV_12 -6.6895e-08 1 1  ON 42
uuV_13 1.9761e-06 1 1  ON 43
uuV_14 1.4174e-07 1 1  ON 44
uuV_15 -1.0309e-08 1 1  ON 45
uuV_16 1.1529e-05 1 1  ON 46
uuV_17 -1.1368e-06 1 1  ON 47
uuV_18 1.4620e-06 1 1  ON 48
uuV_19 -2.1728e-07 1 1  ON 49
uuV_20 -1.9022e-06 1 1  ON 50
uuV_21 -4.8467e-08 1 1  ON 51
uuV_22 2.8218e-08 1 1  ON 52
uuV_23 4.8563e-07 1 1  ON 53
uuV_24 -2.7289e-08 1 1  ON 54
uuV_25 -2.7805e-09 1 1  ON 55
udV_0 4.4943e-06 1 1  ON 56
udV_1 1.4953e-05 1 1  ON 57
udV_2 5.9376e-06 1 1  ON 58
udV_3 -6.4424e-06 1 1  ON 59
udV_4 -1.4806e-06 1 1  ON 60
udV_5 -1.7558e-06 1 1  ON 61
udV_6 2.2474e-05 1 1  ON 62
udV_7 5.1772e-07 1 1  ON 63
udV_8 4.7740e-06 1 1  ON 64
udV_9 -2.2901e-05 1 1  ON 65
udV_10 -3.4345e-06 1 1  ON 66
udV_11 -4.1237e-06 1 1  ON 67
udV_12 -3.6376e-07 1 1  ON 68
udV_13 5.6827e-06 1 1  ON 69
udV_14 1.3752e-07 1 1  ON 70
udV_15 1.0426e-08 1 1  ON 71
udV_16 2.6092e-05 1 1  ON 72
udV_17 -1.5340e-06 1 1  ON 73
udV_18 1.7627e-06 1 1  ON 74
udV_19 -2.5458e-07 1 1  ON 75
udV_20 -5.7353e-06 1 1  ON 76
udV_21 1.8547e-07 1 1  ON 77
udV_22 7.2324e-09 1 1  ON 78
udV_23 1.5205e-06 1 1  ON 79
udV_24 -1.1259e-07 1 1  ON 80
udV_25 6.8326e-09 1 1  ON 81
  </optVariables>
   Restore the number of walkers to 1, removing 0 walkers.
</opt>
</optimization-report>
  QMC Execution time = 6.7694e+00 secs 
  Reusing QMCFixedSampleLinearOptimize
 Using QMCCostFunction::QMCCostFunction

=========================================================
  Start QMCFixedSampleLinearOptimize
  File Root V.log.s009 append = no 
=========================================================
  Skip QMCDriver::putQMCInfo 
  Resetting Properties of the walkers 1 x 13

=========================================================
  Start VMC
  File Root V.log.s009 append = no 
=========================================================
Using existing walkers 
  Resetting Properties of the walkers 1 x 13

<vmc function="put">
  qmc_counter=8  my_counter=8
  time step      = 1.5000e-01
  blocks         = 500
  steps          = 1
  substeps       = 5
  current        = 0
  target samples = 5.1200e+05
  walkers/mpi    = 1

  stepsbetweensamples = 1
<parameter name="blocks" condition="int">500</parameter>
<parameter name="blocks_between_recompute" condition="int">0</parameter>
<parameter name="check_properties" condition="int">100</parameter>
<parameter name="checkproperties" condition="int">100</parameter>
<parameter name="current" condition="int">0</parameter>
<parameter name="dmcwalkersperthread" condition="real">5.0000e+02</parameter>
<parameter name="maxcpusecs" condition="real">3.6000e+05</parameter>
<parameter name="record_configs" condition="int">0</parameter>
<parameter name="record_walkers" condition="int">1</parameter>
<parameter name="recordconfigs" condition="int">0</parameter>
<parameter name="recordwalkers" condition="int">1</parameter>
<parameter name="rewind" condition="int">0</parameter>
<parameter name="samples" condition="real">5.1200e+05</parameter>
<parameter name="samplesperthread" condition="real">5.0000e+02</parameter>
<parameter name="steps" condition="int">1</parameter>
<parameter name="stepsbetweensamples" condition="int">1</parameter>
<parameter name="store_configs" condition="int">0</parameter>
<parameter name="storeconfigs" condition="int">0</parameter>
<parameter name="sub_steps" condition="int">5</parameter>
<parameter name="substeps" condition="int">5</parameter>
<parameter name="tau" condition="au">1.5000e-01</parameter>
<parameter name="time_step" condition="au">1.5000e-01</parameter>
<parameter name="timestep" condition="au">1.5000e-01</parameter>
<parameter name="use_drift" condition="string">no</parameter>
<parameter name="usedrift" condition="string">no</parameter>
<parameter name="walkers" condition="int">1</parameter>
<parameter name="warmup_steps" condition="int">0</parameter>
<parameter name="warmupsteps" condition="int">0</parameter>
  DumpConfig==false Nothing (configurations, state) will be saved.
  Walker Samples are dumped every 1 steps.
</vmc>
  EstimatorManagerBase::add replace LocalEnergy estimator.
  EstimatorManagerBase::add replace LocalEnergy estimator.
<optimization-report>
<vmc stage="main" blocks="500">
  Cannot make clones again. Use existing 1 clones
  Initial partition of walkers 0 1 
  Using Particle by Particle moves
  Walker moves without drift
  Total Sample Size   =512000
  Walker distribution on root = 0 1 
  Using Locality Approximation
===== Memory Usage after the buffer registration =====
Available memory on node 0, free + buffers : 82410 MB
Memory footprint by rank 0 on node 0       : 119 MB
==================================================
====================================================
  SimpleFixedNodeBranch::finalize after a VMC block
    QMC counter        = 9
    time step          = 0.15
    reference energy   = -71.3668
    reference variance = 0.946606
====================================================
  Execution time = 3.9550e+00
</vmc>
<opt stage="setup">
  <log>
   Reading configurations from h5FileRoot V.log.s009
  QMCCostFunction is created with 1 threads.
  Using Nonlocal PP in Opt: NonLocalECP
   Number of samples loaded to each thread : 500 
  VMC Eavg = -7.1336e+01
  VMC Evar = 1.0538e+00
  Total weights = 5.1200e+05
  Execution time = 1.9227e+00
  </log>
</opt>
<opt stage="main" walkers="512000">
  <log>

*****************************************
Building overlap and Hamiltonian matrices
*****************************************

Among totally 82 optimized parameters, largest LM parameter change : 2.1173e-02 at parameter 25

******************************************************************************
Init Cost =  -6.7717e+01    New Cost =  -6.7717e+01  Delta Cost =  -5.2312e-04
******************************************************************************

The new set of parameters is valid. Updating the trial wave function!

*****************************************************************************
Applying the update for shift_i =   1.0000e-02     and shift_s =   3.9062e-03
*****************************************************************************
  Execution time = 6.8381e+00
  </log>
  <optVariables href="V.log.s009.opt.xml">
uu_0 2.3921e-01 1 1  ON 0
uu_1 8.0492e-02 1 1  ON 1
uu_2 -1.5808e-02 1 1  ON 2
uu_3 -6.3557e-02 1 1  ON 3
uu_4 -9.8043e-02 1 1  ON 4
uu_5 -1.2370e-01 1 1  ON 5
uu_6 -1.3655e-01 1 1  ON 6
uu_7 -1.3103e-01 1 1  ON 7
uu_8 -9.9480e-02 1 1  ON 8
uu_9 -2.2732e-02 1 1  ON 9
ud_0 7.7491e-01 1 1  ON 10
ud_1 4.2432e-01 1 1  ON 11
ud_2 1.9486e-01 1 1  ON 12
ud_3 7.4245e-02 1 1  ON 13
ud_4 3.9240e-03 1 1  ON 14
ud_5 -4.6143e-02 1 1  ON 15
ud_6 -7.3384e-02 1 1  ON 16
ud_7 -1.0540e-01 1 1  ON 17
ud_8 -1.0889e-01 1 1  ON 18
ud_9 -7.2105e-02 1 1  ON 19
eV_0 -2.3917e+00 1 1  ON 20
eV_1 -1.8837e+00 1 1  ON 21
eV_2 -5.5673e-01 1 1  ON 22
eV_3 2.5028e-01 1 1  ON 23
eV_4 5.1885e-01 1 1  ON 24
eV_5 6.3144e-01 1 1  ON 25
eV_6 1.0029e+00 1 1  ON 26
eV_7 1.1335e+00 1 1  ON 27
eV_8 9.4172e-01 1 1  ON 28
eV_9 3.6491e-01 1 1  ON 29
uuV_0 2.7451e-06 1 1  ON 30
uuV_1 7.1710e-06 1 1  ON 31
uuV_2 1.3224e-06 1 1  ON 32
uuV_3 -3.7602e-06 1 1  ON 33
uuV_4 -5.8142e-07 1 1  ON 34
uuV_5 7.0340e-08 1 1  ON 35
uuV_6 6.8505e-06 1 1  ON 36
uuV_7 2.8396e-06 1 1  ON 37
uuV_8 2.3863e-06 1 1  ON 38
uuV_9 -9.1007e-06 1 1  ON 39
uuV_10 -1.8919e-06 1 1  ON 40
uuV_11 -2.7052e-06 1 1  ON 41
uuV_12 -2.1758e-07 1 1  ON 42
uuV_13 2.1939e-06 1 1  ON 43
uuV_14 2.9264e-07 1 1  ON 44
uuV_15 -1.0206e-08 1 1  ON 45
uuV_16 1.0305e-05 1 1  ON 46
uuV_17 -3.8403e-07 1 1  ON 47
uuV_18 1.2131e-06 1 1  ON 48
uuV_19 -1.2293e-07 1 1  ON 49
uuV_20 -1.7024e-06 1 1  ON 50
uuV_21 -6.1986e-08 1 1  ON 51
uuV_22 2.2422e-08 1 1  ON 52
uuV_23 4.0890e-07 1 1  ON 53
uuV_24 -2.2029e-08 1 1  ON 54
uuV_25 -2.6674e-09 1 1  ON 55
udV_0 4.2468e-06 1 1  ON 56
udV_1 1.4603e-05 1 1  ON 57
udV_2 6.1158e-06 1 1  ON 58
udV_3 -6.2165e-06 1 1  ON 59
udV_4 -1.4777e-06 1 1  ON 60
udV_5 -1.7413e-06 1 1  ON 61
udV_6 2.2142e-05 1 1  ON 62
udV_7 6.5473e-07 1 1  ON 63
udV_8 4.8930e-06 1 1  ON 64
[...]
    reference energy   = -71.347
    reference variance = 0.938455
====================================================
  Execution time = 3.9313e+00
</vmc>
<opt stage="setup">
  <log>
   Reading configurations from h5FileRoot V.log.s020
  QMCCostFunction is created with 1 threads.
  Using Nonlocal PP in Opt: NonLocalECP
   Number of samples loaded to each thread : 500 
  VMC Eavg = -7.1339e+01
  VMC Evar = 1.0568e+00
  Total weights = 5.1200e+05
  Execution time = 1.8810e+00
  </log>
</opt>
<opt stage="main" walkers="512000">
  <log>

*****************************************
Building overlap and Hamiltonian matrices
*****************************************

Among totally 82 optimized parameters, largest LM parameter change : 1.6995e-02 at parameter 29

******************************************************************************
Init Cost =  -6.7720e+01    New Cost =  -6.7720e+01  Delta Cost =  -3.9072e-05
******************************************************************************

The new set of parameters is valid. Updating the trial wave function!

*****************************************************************************
Applying the update for shift_i =   1.0000e-02     and shift_s =   3.9062e-03
*****************************************************************************
  Execution time = 6.8035e+00
  </log>
  <optVariables href="V.log.s020.opt.xml">
uu_0 2.0058e-01 1 1  ON 0
uu_1 4.1303e-02 1 1  ON 1
uu_2 -4.6523e-02 1 1  ON 2
uu_3 -8.0775e-02 1 1  ON 3
uu_4 -1.0672e-01 1 1  ON 4
uu_5 -1.2967e-01 1 1  ON 5
uu_6 -1.4121e-01 1 1  ON 6
uu_7 -1.4655e-01 1 1  ON 7
uu_8 -1.2912e-01 1 1  ON 8
uu_9 -5.5583e-02 1 1  ON 9
ud_0 7.9288e-01 1 1  ON 10
ud_1 4.4032e-01 1 1  ON 11
ud_2 2.1628e-01 1 1  ON 12
ud_3 1.0202e-01 1 1  ON 13
ud_4 3.4671e-02 1 1  ON 14
ud_5 -1.5032e-02 1 1  ON 15
ud_6 -4.4651e-02 1 1  ON 16
ud_7 -8.1918e-02 1 1  ON 17
ud_8 -9.4045e-02 1 1  ON 18
ud_9 -5.3901e-02 1 1  ON 19
eV_0 -2.5455e+00 1 1  ON 20
eV_1 -2.0239e+00 1 1  ON 21
eV_2 -5.8873e-01 1 1  ON 22
eV_3 3.4022e-01 1 1  ON 23
eV_4 5.8359e-01 1 1  ON 24
eV_5 5.2637e-01 1 1  ON 25
eV_6 9.2663e-01 1 1  ON 26
eV_7 1.1253e+00 1 1  ON 27
eV_8 1.0835e+00 1 1  ON 28
eV_9 5.2812e-01 1 1  ON 29
uuV_0 3.0571e-06 1 1  ON 30
uuV_1 7.4949e-06 1 1  ON 31
uuV_2 9.9650e-07 1 1  ON 32
uuV_3 -3.9061e-06 1 1  ON 33
uuV_4 -6.1511e-07 1 1  ON 34
uuV_5 3.1131e-07 1 1  ON 35
uuV_6 6.9980e-06 1 1  ON 36
uuV_7 2.7425e-06 1 1  ON 37
uuV_8 2.0366e-06 1 1  ON 38
uuV_9 -9.4849e-06 1 1  ON 39
uuV_10 -2.0952e-06 1 1  ON 40
uuV_11 -2.4483e-06 1 1  ON 41
uuV_12 -1.5519e-07 1 1  ON 42
uuV_13 2.3109e-06 1 1  ON 43
uuV_14 2.2177e-07 1 1  ON 44
uuV_15 -9.3582e-09 1 1  ON 45
uuV_16 1.1277e-05 1 1  ON 46
uuV_17 -5.9735e-07 1 1  ON 47
uuV_18 1.1933e-06 1 1  ON 48
uuV_19 -1.2635e-07 1 1  ON 49
uuV_20 -1.9153e-06 1 1  ON 50
uuV_21 -6.1646e-08 1 1  ON 51
uuV_22 2.1390e-08 1 1  ON 52
uuV_23 4.6151e-07 1 1  ON 53
uuV_24 -1.9396e-08 1 1  ON 54
uuV_25 -3.0018e-09 1 1  ON 55
udV_0 4.8683e-06 1 1  ON 56
udV_1 1.5279e-05 1 1  ON 57
udV_2 5.6261e-06 1 1  ON 58
udV_3 -6.8081e-06 1 1  ON 59
udV_4 -1.5185e-06 1 1  ON 60
udV_5 -1.6645e-06 1 1  ON 61
udV_6 2.2655e-05 1 1  ON 62
udV_7 -3.7710e-07 1 1  ON 63
udV_8 4.5685e-06 1 1  ON 64
udV_9 -2.3323e-05 1 1  ON 65
udV_10 -3.6847e-06 1 1  ON 66
udV_11 -3.4207e-06 1 1  ON 67
udV_12 -3.8587e-07 1 1  ON 68
udV_13 6.4289e-06 1 1  ON 69
udV_14 1.3635e-07 1 1  ON 70
udV_15 1.2361e-08 1 1  ON 71
udV_16 2.6384e-05 1 1  ON 72
udV_17 -6.9768e-07 1 1  ON 73
udV_18 1.0886e-06 1 1  ON 74
udV_19 -1.7135e-07 1 1  ON 75
udV_20 -6.1994e-06 1 1  ON 76
udV_21 2.7948e-07 1 1  ON 77
udV_22 -8.5491e-09 1 1  ON 78
udV_23 1.6691e-06 1 1  ON 79
udV_24 -1.3812e-07 1 1  ON 80
udV_25 1.0944e-08 1 1  ON 81
  </optVariables>
   Restore the number of walkers to 1, removing 0 walkers.
</opt>
</optimization-report>
  QMC Execution time = 6.8208e+00 secs 

=========================================================
  Start VMC
  File Root V.log.s021 append = no 
=========================================================
  Using the current 1 walkers.
  Total number of walkers: 1.0240e+03
  Total weight: 1.0240e+03
  Resetting Properties of the walkers 1 x 13

<vmc function="put">
  qmc_counter=0  my_counter=0
  time step      = 1.5000e-01
  blocks         = 200
  steps          = 1
  substeps       = 30
  current        = 0
  target samples = 4.0960e+03
  walkers/mpi    = 1

  stepsbetweensamples = 50
<parameter name="blocks" condition="int">200</parameter>
<parameter name="blocks_between_recompute" condition="int">0</parameter>
<parameter name="check_properties" condition="int">100</parameter>
<parameter name="checkproperties" condition="int">100</parameter>
<parameter name="current" condition="int">0</parameter>
<parameter name="dmcwalkersperthread" condition="real">4.0000e+00</parameter>
<parameter name="maxcpusecs" condition="real">3.6000e+05</parameter>
<parameter name="record_configs" condition="int">0</parameter>
<parameter name="record_walkers" condition="int">50</parameter>
<parameter name="recordconfigs" condition="int">0</parameter>
<parameter name="recordwalkers" condition="int">50</parameter>
<parameter name="rewind" condition="int">0</parameter>
<parameter name="samples" condition="real">4.0960e+03</parameter>
<parameter name="samplesperthread" condition="real">4.0000e+00</parameter>
<parameter name="steps" condition="int">1</parameter>
<parameter name="stepsbetweensamples" condition="int">50</parameter>
<parameter name="store_configs" condition="int">0</parameter>
<parameter name="storeconfigs" condition="int">0</parameter>
<parameter name="sub_steps" condition="int">30</parameter>
<parameter name="substeps" condition="int">30</parameter>
<parameter name="tau" condition="au">1.5000e-01</parameter>
<parameter name="time_step" condition="au">1.5000e-01</parameter>
<parameter name="timestep" condition="au">1.5000e-01</parameter>
<parameter name="use_drift" condition="string">no</parameter>
<parameter name="usedrift" condition="string">no</parameter>
<parameter name="walkers" condition="int">1</parameter>
<parameter name="warmup_steps" condition="int">100</parameter>
<parameter name="warmupsteps" condition="int">100</parameter>
  DumpConfig==false Nothing (configurations, state) will be saved.
  Walker Samples are dumped every 50 steps.
</vmc>
  EstimatorManagerBase::add replace LocalEnergy estimator.
  Cannot make clones again. Use existing 1 clones
  Initial partition of walkers 0 1 

  Using Particle by Particle moves
  Walker moves without drift
  Total Sample Size   =4096
  Walker distribution on root = 0 1 
  Using Locality Approximation
===== Memory Usage after the buffer registration =====
Available memory on node 0, free + buffers : 82358 MB
Memory footprint by rank 0 on node 0       : 157 MB
==================================================
  Anonymous Buffer size per walker : 6464 Bytes.
MEMORY increase 0 MB VMC::resetRun
====================================================
  SimpleFixedNodeBranch::finalize after a VMC block
    QMC counter        = 21
    time step          = 0.15
    reference energy   = -71.2709
    reference variance = 1.2909
====================================================
  QMC Execution time = 5.1989e+00 secs 

=========================================================
  Start DMC
  File Root V.log.s022 append = no 
=========================================================
Using existing walkers 
  Resetting Properties of the walkers 1 x 13
  EstimatorManagerBase::add replace LocalEnergy estimator.
  Cannot make clones again. Use existing 1 clones
  Total number of walkers: 4.0960e+03
  Total weight: 4.0960e+03
  Creating WalkerController: target  number of walkers = 4096
  Using WalkerControlMPI for dynamic population control.
  START ALL OVER 
  WalkerControlBase parameters 
    maxCopy = 2
    Max Walkers per MPI rank 9
    Min Walkers per MPI rank 1
    Using non-blocking send/recv
  QMC counter      = 22
  time step        = 2.0000e-02
  effective time step = 2.0000e-02
  trial energy     = -7.1271e+01
  reference energy = -7.1271e+01
  Feedback = 1.0000e+00
  reference variance = 1.2909e+00
  target walkers = 4096
  branching cutoff scheme classic
  branch cutoff = 5.0000e+01 7.5000e+01
  Max and minimum walkers per node= 9 1
  QMC Status (BranchMode) = 0000001101
  Initial partition of walkers on a node: 0 4 
  Updates by particle-by-particle moves
  DMC moves are rejected when a node crossing is detected
  Using Non-local T-moves v0, M. Casula, PRB 74, 161102(R) (2006)
===== Memory Usage after the buffer registration =====
Available memory on node 0, free + buffers : 82356 MB
Memory footprint by rank 0 on node 0       : 157 MB
==================================================
SimpleFixedNodeBranch::checkParameters 
  Average Energy of a population  = -71.3053
  Energy Variance = 1.02235

  Fluctuating population
  Persistent walkers are killed after 1 MC sweeps
  BranchInterval = 1
  Steps per block = 50
  Number of blocks = 150

  DMC Engine Initialization = 3.3619e-02 secs 

 Warmup is completed after 100

  TauEff     = 1.9069e-02
 TauEff/Tau = 9.5344e-01
  Etrial     = -7.1214e+01
 Running average of energy = -7.1383e+01
                  Variance = 1.2034e+00
branch cutoff = 1.2034e+01 1.8051e+01
====================================================
  SimpleFixedNodeBranch::finalize after a DMC block
    QMC counter                   = 22
    time step                     = 0.02
    effective time step           = 0.0190672
    trial energy                  = -71.3824
    reference energy              = -71.3824
    reference variance            = 1.20338
    target walkers                = 4096
    branch cutoff                 = 12.0338 18.0507
    Max and minimum walkers per node= 9 1
    Feedback                      = 1
    QMC Status (BranchMode)       = 0000001111
====================================================
  QMC Execution time = 7.8431e+01 secs 
  Reusing DMC
BRANCH resetRun
 SimpleFixedNodeBranch::resetRun detected changes in <parameter>'s 
 BranchMode : 0000001111 0000001111
  WalkerControlBase parameters 
    maxCopy = 2
    Max Walkers per MPI rank 9
    Min Walkers per MPI rank 1
    Using non-blocking send/recv
 iParam (old):                  0                 1                22              4096                 9                 1                 1                 0
 iParam (new):                100                 1                22              4096                 9                 1                 1                 0
 vParam (old):   2.0000000000e-02  1.9067210726e-02 -7.1382421590e+01 -7.1382421590e+01 -7.1380995047e+01  1.8050684966e+01  1.2033789977e+01  1.6619867920e-01  1.2033789977e+00 -5.2830130076e+05  7.4010000000e+03  1.0000000000e+00  1.0000000000e+01  1.0000000000e+00  1.0000000000e+00  1.0000000000e+00  1.0000000000e+00
 vParam (new):   1.0000000000e-02  1.9067210726e-02 -7.1382421590e+01 -7.1382421590e+01 -7.1380995047e+01  1.8050684966e+01  1.2033789977e+01  1.6619867920e-01  1.2033789977e+00 -5.2830130076e+05  7.4010000000e+03  1.0000000000e+00  1.0000000000e+01  1.0000000000e+00  1.0000000000e+00  1.0000000000e+00  1.0000000000e+00

 Using branching cutoff scheme classic
SimpleFixedNodeBranch::checkParameters 
  Average Energy of a population  = -71.3774
  Energy Variance = 1.24772

  Using Non-local T-moves v0, M. Casula, PRB 74, 161102(R) (2006)
===== Memory Usage after the buffer registration =====
Available memory on node 0, free + buffers : 82326 MB
Memory footprint by rank 0 on node 0       : 161 MB
==================================================

=========================================================
  Start DMC
  File Root V.log.s023 append = no 
=========================================================
Using existing walkers 
  Resetting Properties of the walkers 1 x 13
  EstimatorManagerBase::add replace LocalEnergy estimator.
  Cannot make clones again. Use existing 1 clones
SimpleFixedNodeBranch::checkParameters 
  Average Energy of a population  = -71.3778
  Energy Variance = 1.37673

  Fluctuating population
  Persistent walkers are killed after 1 MC sweeps
  BranchInterval = 1
  Steps per block = 100
  Number of blocks = 200

  DMC Engine Initialization = 3.3617019653e-04 secs 

 Warmup is completed after 100

  TauEff     = 9.8056931167e-03
 TauEff/Tau = 9.8056931167e-01
  Etrial     = -7.1241795842e+01
 Running average of energy = -7.1372765950e+01
                  Variance = 1.0695938202e+00
branch cutoff = 1.0695938202e+01 1.6043907302e+01
====================================================
  SimpleFixedNodeBranch::finalize after a DMC block
    QMC counter                   = 23
    time step                     = 0.01
    effective time step           = 0.00980521
    trial energy                  = -71.3764
    reference energy              = -71.3776
    reference variance            = 1.06959
    target walkers                = 4096
    branch cutoff                 = 10.6959 16.0439
    Max and minimum walkers per node= 9 1
    Feedback                      = 1
    QMC Status (BranchMode)       = 0000001111
====================================================
  QMC Execution time = 2.0200e+02 secs 
  Reusing DMC
BRANCH resetRun
 SimpleFixedNodeBranch::resetRun detected changes in <parameter>'s 
 BranchMode : 0000001111 0000001111
  WalkerControlBase parameters 
    maxCopy = 2
    Max Walkers per MPI rank 9
    Min Walkers per MPI rank 1
    Using non-blocking send/recv
 iParam (old):                  0                 1                23              4096                 9                 1                 1                 0
 iParam (new):                200                 1                23              4096                 9                 1                 1                 0
 vParam (old):   1.0000000000e-02  9.8052090108e-03 -7.1376365006e+01 -7.1377586455e+01 -7.1367631223e+01  1.6043907302e+01  1.0695938202e+01  1.8698686944e-01  1.0695938202e+00 -1.4204853381e+06  1.9901000000e+04  1.0000000000e+00  1.0000000000e+01  1.0000000000e+00  1.0000000000e+00  1.0000000000e+00  1.0000000000e+00
 vParam (new):   5.0000000000e-03  9.8052090108e-03 -7.1376365006e+01 -7.1377586455e+01 -7.1367631223e+01  1.6043907302e+01  1.0695938202e+01  1.8698686944e-01  1.0695938202e+00 -1.4204853381e+06  1.9901000000e+04  1.0000000000e+00  1.0000000000e+01  1.0000000000e+00  1.0000000000e+00  1.0000000000e+00  1.0000000000e+00

 Using branching cutoff scheme classic
SimpleFixedNodeBranch::checkParameters 
  Average Energy of a population  = -71.3689
  Energy Variance = 1.45902

  Using Non-local T-moves v0, M. Casula, PRB 74, 161102(R) (2006)
===== Memory Usage after the buffer registration =====
Available memory on node 0, free + buffers : 82306 MB
Memory footprint by rank 0 on node 0       : 166 MB
==================================================

=========================================================
  Start DMC
  File Root V.log.s024 append = no 
=========================================================
Using existing walkers 
  Resetting Properties of the walkers 1 x 13
  EstimatorManagerBase::add replace LocalEnergy estimator.
  Cannot make clones again. Use existing 1 clones
SimpleFixedNodeBranch::checkParameters 
  Average Energy of a population  = -71.4305
  Energy Variance = 22.0971

  Fluctuating population
  Persistent walkers are killed after 1 MC sweeps
  BranchInterval = 1
  Steps per block = 200
  Number of blocks = 250

  DMC Engine Initialization = 3.6501884460e-04 secs 

 Warmup is completed after 200

  TauEff     = 4.9611657266e-03
 TauEff/Tau = 9.9223314532e-01
  Etrial     = -7.1518693196e+01
 Running average of energy = -7.1381469167e+01
                  Variance = 1.1890501590e+00
branch cutoff = 1.1890501590e+01 1.7835752385e+01
====================================================
  SimpleFixedNodeBranch::finalize after a DMC block
    QMC counter                   = 24
    time step                     = 0.005
    effective time step           = 0.00496086
    trial energy                  = -71.3797
    reference energy              = -71.3755
    reference variance            = 1.18905
    target walkers                = 4096
    branch cutoff                 = 11.8905 17.8358
    Max and minimum walkers per node= 9 1
    Feedback                      = 1
    QMC Status (BranchMode)       = 0000001111
====================================================
  QMC Execution time = 5.0819e+02 secs 
  Reusing DMC
BRANCH resetRun
 SimpleFixedNodeBranch::resetRun detected changes in <parameter>'s 
 BranchMode : 0000001111 0000001111
  WalkerControlBase parameters 
    maxCopy = 2
    Max Walkers per MPI rank 9
    Min Walkers per MPI rank 1
    Using non-blocking send/recv
 iParam (old):                  0                 1                24              4096                 9                 1                 1                 0
 iParam (new):                400                 1                24              4096                 9                 1                 1                 0
 vParam (old):   5.0000000000e-03  4.9608628917e-03 -7.1379667089e+01 -7.1375525288e+01 -7.1414106280e+01  1.7835752385e+01  1.1890501590e+01  1.6820148291e-01  1.1890501590e+00 -3.5545725734e+06  4.9801000000e+04  1.0000000000e+00  1.0000000000e+01  1.0000000000e+00  1.0000000000e+00  1.0000000000e+00  1.0000000000e+00
 vParam (new):   2.5000000000e-03  4.9608628917e-03 -7.1379667089e+01 -7.1375525288e+01 -7.1414106280e+01  1.7835752385e+01  1.1890501590e+01  1.6820148291e-01  1.1890501590e+00 -3.5545725734e+06  4.9801000000e+04  1.0000000000e+00  1.0000000000e+01  1.0000000000e+00  1.0000000000e+00  1.0000000000e+00  1.0000000000e+00

 Using branching cutoff scheme classic
SimpleFixedNodeBranch::checkParameters 
  Average Energy of a population  = -71.4135
  Energy Variance = 1.50678

  Using Non-local T-moves v0, M. Casula, PRB 74, 161102(R) (2006)
===== Memory Usage after the buffer registration =====
Available memory on node 0, free + buffers : 82280 MB
Memory footprint by rank 0 on node 0       : 172 MB
==================================================

=========================================================
  Start DMC
  File Root V.log.s025 append = no 
=========================================================
Using existing walkers 
  Resetting Properties of the walkers 1 x 13
  EstimatorManagerBase::add replace LocalEnergy estimator.
  Cannot make clones again. Use existing 1 clones
SimpleFixedNodeBranch::checkParameters 
  Average Energy of a population  = -71.3951
  Energy Variance = 1.37399

  Fluctuating population
  Persistent walkers are killed after 1 MC sweeps
  BranchInterval = 1
  Steps per block = 400
  Number of blocks = 300

  DMC Engine Initialization = 3.8599967957e-04 secs 

 Warmup is completed after 400

  TauEff     = 2.4923290052e-03
 TauEff/Tau = 9.9693160207e-01
  Etrial     = -7.1468816354e+01
 Running average of energy = -7.1373268787e+01
                  Variance = 1.1040238906e+00
branch cutoff = 1.1040238906e+01 1.6560358359e+01
====================================================
  SimpleFixedNodeBranch::finalize after a DMC block
    QMC counter                   = 25
    time step                     = 0.0025
    effective time step           = 0.00249232
    trial energy                  = -71.3768
    reference energy              = -71.3741
    reference variance            = 1.10402
    target walkers                = 4096
    branch cutoff                 = 11.0402 16.5604
    Max and minimum walkers per node= 9 1
    Feedback                      = 1
    QMC Status (BranchMode)       = 0000001111
====================================================
  QMC Execution time = 1.2293e+03 secs 
  Total Execution time = 2.1621e+03 secs

=========================================================
  A new xml input file : V.log.s025.cont.xml
TACC:  Shutdown complete. Exiting. 
