TACC:  Starting up job 3912529 
TACC:  Starting parallel tasks... 
  Input file(s): Ge.log.qmc.in-wfj.xml 

=====================================================
                    QMCPACK 3.7.9

       (c) Copyright 2003-  QMCPACK developers

                    Please cite:
 J. Kim et al. J. Phys. Cond. Mat. 30 195901 (2018)
      https://doi.org/10.1088/1361-648X/aab9c3

  Git branch: develop
  Last git commit: 9a049a3fb3e0d7110d61a924a52203fd8296522a
  Last git commit date: Mon Jul 1 13:42:43 2019 -0500
  Last git commit subject: Merge pull request #1686 from ye-luo/rename-to-LCAOHDFParser
=====================================================
  Global options 

  Total number of MPI ranks = 1024
  Number of MPI groups      = 1
  MPI group ID              = 0
  Number of ranks in group  = 1024
  MPI ranks per node        = 64
  OMP 1st level threads     = 1
  OMP nested threading disabled or only 1 thread on the 2nd level

  Precision used in this calculation, see definitions in the manual:
  Base precision      = double
  Full precision      = double

  Structure-of-arrays (SoA) optimization enabled

  Input XML = Ge.log.qmc.in-wfj.xml

  Project = Ge.log
  date    = 2019-07-01 18:31:13 CDT
  host    = c401-014.stampede2.tacc.utexas.edu

 Random Number
 -------------
  Offset for the random number seeds based on time: 961

  Range of prime numbers to use as seeds over processors and threads = 7583-17291


 Particle Set 
 ------------
  Name: ion0
  All the species have the same mass 1
  Particle set size: 1

 Particle Set 
 ------------
  Name: e
  All the species have the same mass 1
  Particle set size: 4

 Wavefunction setup: 
 ------------------- 
  Name: psi0
  LCAO: SoaAtomicBasisSet<MultiQuintic,1>
Reading BasisSet from HDF5 file:Ge.log.h5
<input node="atomicBasisSet" name="gaussian" expandYlm="pyscf" angular="spherical" elementType="Ge" normalized="no" type="Numerical" expM="0" />
  AO BasisSet for Ge
   Spherical Harmonics contain (-1)^m factor
   Angular momentum m expanded as -l, ... ,l, with the exception of L=1 (1,-1,0)
   Grid is created by the input paremters in h5
    Using log grid ri = 1e-06 rf = 100 npts = 1001
   R(n,l,m,s) 0 0 0 0
   R(n,l,m,s) 1 0 0 0
   R(n,l,m,s) 2 0 0 0
   R(n,l,m,s) 3 0 0 0
   R(n,l,m,s) 4 1 0 0
   R(n,l,m,s) 5 1 0 0
   R(n,l,m,s) 6 1 0 0
   R(n,l,m,s) 7 1 0 0
   R(n,l,m,s) 8 2 0 0
   R(n,l,m,s) 9 2 0 0
   R(n,l,m,s) 10 2 0 0
   R(n,l,m,s) 11 3 0 0
   R(n,l,m,s) 12 3 0 0
   R(n,l,m,s) 13 4 0 0
Expanding Ylm as L=1 as (1,-1,0) and L>1 as -l,-l+1,...,l-1,l
   Adding 1 spherical orbitals
   Adding 1 spherical orbitals
   Adding 1 spherical orbitals
   Adding 1 spherical orbitals
   Adding 3 spherical orbitals
   Adding 3 spherical orbitals
   Adding 3 spherical orbitals
   Adding 3 spherical orbitals
   Adding 5 spherical orbitals
   Adding 5 spherical orbitals
   Adding 5 spherical orbitals
   Adding 7 spherical orbitals
   Adding 7 spherical orbitals
   Adding 9 spherical orbitals
  Setting cutoff radius 14.9968

   Maximum Angular Momentum  = 4
   Number of Radial functors = 14
   Basis size                = 54

  Created SPOSet builder named 'LCAOBSet' of type molecularorbital
Reuse SPOSetBuilder "LCAOBSet" type MolecularOrbital
  Building SPOSet '' with '' basis set.
Reuse SPOSetBuilder "LCAOBSet" type MolecularOrbital
  Building SPOSet '' with '' basis set.
  Creating a determinant updet group=0 sposet=updet
  Reusing a SPO set updet
Using DiracDeterminant with DelayedUpdate engine
Using rank-1 Sherman-Morrison Fahy update

  Creating a determinant downdet group=1 sposet=downdet
  Reusing a SPO set downdet
Using DiracDeterminant with DelayedUpdate engine
Using rank-1 Sherman-Morrison Fahy update

  FermionWF = SlaterDet

   Jastrow
   -------
    Name: J2   Type: Two-Body   Function: Bspline

    Radial function for species: u - u
     Number of parameters: 10
     Cusp: -0.25
     Cutoff radius: 10

     Name                        Value Type Recompute Use Index
     ---- ---------------------------- ---- --------- --- -----
     uu_0                 3.762231e-01    1         1  ON     0
     uu_1                 2.017750e-01    1         1  ON     1
     uu_2                 6.959088e-02    1         1  ON     2
     uu_3                -5.669439e-03    1         1  ON     3
     uu_4                -6.004956e-02    1         1  ON     4
     uu_5                -1.001170e-01    1         1  ON     5
     uu_6                -1.237715e-01    1         1  ON     6
     uu_7                -1.328792e-01    1         1  ON     7
     uu_8                -1.209800e-01    1         1  ON     8
     uu_9                -9.491301e-02    1         1  ON     9

    Radial function for species: u - d
     Number of parameters: 10
     Cusp: -0.5
     Cutoff radius: 10

     Name                        Value Type Recompute Use Index
     ---- ---------------------------- ---- --------- --- -----
     ud_0                 1.282813e+00    1         1  ON     0
     ud_1                 9.361963e-01    1         1  ON     1
     ud_2                 6.738571e-01    1         1  ON     2
     ud_3                 4.704909e-01    1         1  ON     3
     ud_4                 3.043518e-01    1         1  ON     4
     ud_5                 1.673749e-01    1         1  ON     5
     ud_6                 5.602254e-02    1         1  ON     6
     ud_7                -3.561926e-02    1         1  ON     7
     ud_8                -9.658406e-02    1         1  ON     8
     ud_9                -1.443210e-01    1         1  ON     9


   Jastrow
   -------
    Name: J1   Type: One-Body   Function: Bspline

    Radial function for element: Ge
     Number of parameters: 10
     Cusp: 0
     Cutoff radius: 10

      Name                        Value Type Recompute Use Index
     ----- ---------------------------- ---- --------- --- -----
     eGe_0                -4.938753e-01    1         1  ON     0
     eGe_1                -5.044844e-01    1         1  ON     1
     eGe_2                -4.478884e-01    1         1  ON     2
     eGe_3                -2.372961e-01    1         1  ON     3
     eGe_4                -3.958800e-02    1         1  ON     4
     eGe_5                 1.498524e-01    1         1  ON     5
     eGe_6                 2.802338e-01    1         1  ON     6
     eGe_7                 3.709067e-01    1         1  ON     7
     eGe_8                 3.832759e-01    1         1  ON     8
     eGe_9                 3.150376e-01    1         1  ON     9


   Jastrow
   -------
    Name: J3   Type: eeI   Function: polynomial

     Ion: Ge   electron-electron: u - u
      Number of parameters for e-e: 3, for e-I: 3
      Cutoff radius: 10

Expected 26 parameters, but found 0 in PolynomialFunctor3D.
         Name                        Value Type Recompute Use Index
      ------- ---------------------------- ---- --------- --- -----
       uuGe_0                 0.000000e+00    1         1  ON     0
       uuGe_1                 0.000000e+00    1         1  ON     1
       uuGe_2                 0.000000e+00    1         1  ON     2
       uuGe_3                 0.000000e+00    1         1  ON     3
       uuGe_4                 0.000000e+00    1         1  ON     4
       uuGe_5                 0.000000e+00    1         1  ON     5
       uuGe_6                 0.000000e+00    1         1  ON     6
       uuGe_7                 0.000000e+00    1         1  ON     7
       uuGe_8                 0.000000e+00    1         1  ON     8
       uuGe_9                 0.000000e+00    1         1  ON     9
      uuGe_10                 0.000000e+00    1         1  ON    10
      uuGe_11                 0.000000e+00    1         1  ON    11
      uuGe_12                 0.000000e+00    1         1  ON    12
      uuGe_13                 0.000000e+00    1         1  ON    13
      uuGe_14                 0.000000e+00    1         1  ON    14
      uuGe_15                 0.000000e+00    1         1  ON    15
      uuGe_16                 0.000000e+00    1         1  ON    16
      uuGe_17                 0.000000e+00    1         1  ON    17
      uuGe_18                 0.000000e+00    1         1  ON    18
      uuGe_19                 0.000000e+00    1         1  ON    19
      uuGe_20                 0.000000e+00    1         1  ON    20
      uuGe_21                 0.000000e+00    1         1  ON    21
      uuGe_22                 0.000000e+00    1         1  ON    22
      uuGe_23                 0.000000e+00    1         1  ON    23
      uuGe_24                 0.000000e+00    1         1  ON    24
      uuGe_25                 0.000000e+00    1         1  ON    25

     Ion: Ge   electron-electron: u - d
      Number of parameters for e-e: 3, for e-I: 3
      Cutoff radius: 10

Expected 26 parameters, but found 0 in PolynomialFunctor3D.
         Name                        Value Type Recompute Use Index
      ------- ---------------------------- ---- --------- --- -----
       udGe_0                 0.000000e+00    1         1  ON     0
       udGe_1                 0.000000e+00    1         1  ON     1
       udGe_2                 0.000000e+00    1         1  ON     2
       udGe_3                 0.000000e+00    1         1  ON     3
       udGe_4                 0.000000e+00    1         1  ON     4
       udGe_5                 0.000000e+00    1         1  ON     5
       udGe_6                 0.000000e+00    1         1  ON     6
       udGe_7                 0.000000e+00    1         1  ON     7
       udGe_8                 0.000000e+00    1         1  ON     8
       udGe_9                 0.000000e+00    1         1  ON     9
      udGe_10                 0.000000e+00    1         1  ON    10
      udGe_11                 0.000000e+00    1         1  ON    11
      udGe_12                 0.000000e+00    1         1  ON    12
      udGe_13                 0.000000e+00    1         1  ON    13
      udGe_14                 0.000000e+00    1         1  ON    14
      udGe_15                 0.000000e+00    1         1  ON    15
      udGe_16                 0.000000e+00    1         1  ON    16
      udGe_17                 0.000000e+00    1         1  ON    17
      udGe_18                 0.000000e+00    1         1  ON    18
      udGe_19                 0.000000e+00    1         1  ON    19
      udGe_20                 0.000000e+00    1         1  ON    20
      udGe_21                 0.000000e+00    1         1  ON    21
      udGe_22                 0.000000e+00    1         1  ON    22
      udGe_23                 0.000000e+00    1         1  ON    23
      udGe_24                 0.000000e+00    1         1  ON    24
      udGe_25                 0.000000e+00    1         1  ON    25

  QMCHamiltonian::addOperator Kinetic to H, physical Hamiltonian 
  QMCHamiltonian::addOperator ElecElec to H, physical Hamiltonian 
QMCHamiltonian::addOperatorType added type coulomb named ElecElec
  CoulombAA for ion0 is not created.  Number of particles == 1 and nonPeriodic

  ECPotential builder for pseudopotential 

  Adding pseudopotential for Ge
   Linear grid  ri=0 rf=10 npts = 10001
    ECPComponentBuilder::buildSemiLocalAndLocal 
    Assuming Hartree unit
   Number of angular momentum channels 4
   Maximum angular momentum channel 3
   Creating a Linear Grid Rmax=4.425
  Using global grid with delta = 0.001
   Making L=3 a local potential with a radial cutoff of 9.999
    Non-local pseudopotential parameters
    Maximum angular mementum = 2
    Number of non-local channels = 3
       l(0)=0
       l(1)=1
       l(2)=2
    Cutoff radius = 4.425
    Spherical grids and weights: 
                        1                 0                 0       0.08333333333
                       -1   1.224646799e-16                 0       0.08333333333
             0.4472135955       0.894427191                 0       0.08333333333
            -0.4472135955      0.7236067977      0.5257311121       0.08333333333
             0.4472135955      0.2763932023      0.8506508084       0.08333333333
            -0.4472135955     -0.2763932023      0.8506508084       0.08333333333
             0.4472135955     -0.7236067977      0.5257311121       0.08333333333
            -0.4472135955      -0.894427191   1.095357397e-16       0.08333333333
             0.4472135955     -0.7236067977     -0.5257311121       0.08333333333
            -0.4472135955     -0.2763932023     -0.8506508084       0.08333333333
             0.4472135955      0.2763932023     -0.8506508084       0.08333333333
            -0.4472135955      0.7236067977     -0.5257311121       0.08333333333
    Maximum cutoff radius 4.425
  QMCHamiltonian::addOperator LocalECP to H, physical Hamiltonian 

  Using NonLocalECP potential 
    Maximum grid on a sphere for NonLocalECPotential: 12
  QMCHamiltonian::addOperator NonLocalECP to H, physical Hamiltonian 
QMCHamiltonian::addOperatorType added type pseudo named PseudoPot

  QMCHamiltonian::add2WalkerProperty added
    4 to P::PropertyList 
    0 to P::Collectables 
    starting Index of the observables in P::PropertyList = 9
ParticleSetPool::randomize 
<init source="ion0" target="e">
</init>
  Initialization Execution time = 0.418 secs
=========================================================
 Summary of QMC systems 
=========================================================
ParticleSetPool has: 

  ParticleSet 'e' contains 4 particles :  u(3) d(1)

    u  1.9755600519e+00 -3.0985900000e-01 -1.4747355265e+00
    u  8.3776179763e-01 -2.6356502135e+00  8.0513008134e-01
    u  6.4136088747e-02  1.9602984947e-01 -8.3535051232e-01
    d  1.1636933499e+00  4.1169047139e-01 -2.0613444569e+00

  Distance table for dissimilar particles (A-B):
    source: ion0  target: e
    Using structure-of-arrays (SoA) data layout
    Distance computations use open boundary conditions in 3D.

  Distance table for similar particles (A-A):
    source/target: e
    Using structure-of-arrays (SoA) data layout
    Distance computations use open boundary conditions in 3D.


  ParticleSet 'ion0' contains 1 particles :  Ge(1)

    Ge  0.0000000000e+00  0.0000000000e+00  0.0000000000e+00


  Hamiltonian h0
  Kinetic         Kinetic energy
  ElecElec        CoulombAB source=e

  LocalECP        LocalECPotential: ion0
  NonLocalECP     NonLocalECPotential: ion0


=========================================================
  Start VMC
  File Root Ge.log.s000 append = no 
=========================================================
  Adding 1 walkers to 0 existing sets
  Total number of walkers: 1.0240000000e+03
  Total weight: 1.0240000000e+03
  Resetting Properties of the walkers 1 x 13

<vmc function="put">
  qmc_counter=0  my_counter=0
  time step      = 1.5000000000e-01
  blocks         = 200
  steps          = 1
  substeps       = 5
  current        = 0
  target samples = 1.0240000000e+03
  walkers/mpi    = 1

  stepsbetweensamples = 200
<parameter name="blocks" condition="int">200</parameter>
<parameter name="blocks_between_recompute" condition="int">0</parameter>
<parameter name="check_properties" condition="int">100</parameter>
<parameter name="checkproperties" condition="int">100</parameter>
<parameter name="current" condition="int">0</parameter>
<parameter name="dmcwalkersperthread" condition="real">1.0000000000e+00</parameter>
<parameter name="maxcpusecs" condition="real">3.6000000000e+05</parameter>
<parameter name="record_configs" condition="int">0</parameter>
<parameter name="record_walkers" condition="int">200</parameter>
<parameter name="recordconfigs" condition="int">0</parameter>
<parameter name="recordwalkers" condition="int">200</parameter>
<parameter name="rewind" condition="int">0</parameter>
<parameter name="samples" condition="real">1.0240000000e+03</parameter>
<parameter name="samplesperthread" condition="real">1.0000000000e+00</parameter>
<parameter name="steps" condition="int">1</parameter>
<parameter name="stepsbetweensamples" condition="int">200</parameter>
<parameter name="store_configs" condition="int">0</parameter>
<parameter name="storeconfigs" condition="int">0</parameter>
<parameter name="sub_steps" condition="int">5</parameter>
<parameter name="substeps" condition="int">5</parameter>
<parameter name="tau" condition="au">1.5000000000e-01</parameter>
<parameter name="time_step" condition="au">1.5000000000e-01</parameter>
<parameter name="timestep" condition="au">1.5000000000e-01</parameter>
<parameter name="use_drift" condition="string">no</parameter>
<parameter name="usedrift" condition="string">no</parameter>
<parameter name="walkers" condition="int">1</parameter>
<parameter name="warmup_steps" condition="int">100</parameter>
<parameter name="warmupsteps" condition="int">100</parameter>
  DumpConfig==false Nothing (configurations, state) will be saved.
  Walker Samples are dumped every 200 steps.
</vmc>
  Set drift_modifier UNR parameter a = 1.0000000000e+00
  Initial partition of walkers 0 1 

  Using Particle by Particle moves
  Walker moves without drift
  Total Sample Size   =1024
  Walker distribution on root = 0 1 
  Using Locality Approximation
===== Memory Usage after the buffer registration =====
Available memory on node 0, free + buffers : 52781 MB
Memory footprint by rank 0 on node 0       : 574 MB
==================================================
  Anonymous Buffer size per walker : 1440 Bytes.
MEMORY increase 0 MB VMC::resetRun
====================================================
  SimpleFixedNodeBranch::finalize after a VMC block
    QMC counter        = 0
    time step          = 0.15
    reference energy   = -3.72345
    reference variance = 0.0370669
====================================================
  QMC Execution time = 1.8589e+00 secs
Loop execution max-interations = 20

=========================================================
  Start QMCFixedSampleLinearOptimize
  File Root Ge.log.s001 append = no 
=========================================================
  Skip QMCDriver::putQMCInfo 
  Resetting Properties of the walkers 1 x 13

=========================================================
  Start VMC
  File Root Ge.log.s001 append = no 
=========================================================
  Using the current 1 walkers.
  Total number of walkers: 1.0240e+03
  Total weight: 1.0240e+03
  Resetting Properties of the walkers 1 x 13

<vmc function="put">
  qmc_counter=0  my_counter=0
  time step      = 1.5000e-01
  blocks         = 500
  steps          = 1
  substeps       = 5
  current        = 0
  target samples = 5.1200e+05
  walkers/mpi    = 1

  stepsbetweensamples = 1
<parameter name="blocks" condition="int">500</parameter>
<parameter name="blocks_between_recompute" condition="int">0</parameter>
<parameter name="check_properties" condition="int">100</parameter>
<parameter name="checkproperties" condition="int">100</parameter>
<parameter name="current" condition="int">0</parameter>
<parameter name="dmcwalkersperthread" condition="real">5.0000e+02</parameter>
<parameter name="maxcpusecs" condition="real">3.6000e+05</parameter>
<parameter name="record_configs" condition="int">0</parameter>
<parameter name="record_walkers" condition="int">1</parameter>
<parameter name="recordconfigs" condition="int">0</parameter>
<parameter name="recordwalkers" condition="int">1</parameter>
<parameter name="rewind" condition="int">0</parameter>
<parameter name="samples" condition="real">5.1200e+05</parameter>
<parameter name="samplesperthread" condition="real">5.0000e+02</parameter>
<parameter name="steps" condition="int">1</parameter>
<parameter name="stepsbetweensamples" condition="int">1</parameter>
<parameter name="store_configs" condition="int">0</parameter>
<parameter name="storeconfigs" condition="int">0</parameter>
<parameter name="sub_steps" condition="int">5</parameter>
<parameter name="substeps" condition="int">5</parameter>
<parameter name="tau" condition="au">1.5000e-01</parameter>
<parameter name="time_step" condition="au">1.5000e-01</parameter>
<parameter name="timestep" condition="au">1.5000e-01</parameter>
<parameter name="use_drift" condition="string">no</parameter>
<parameter name="usedrift" condition="string">no</parameter>
<parameter name="walkers" condition="int">1</parameter>
<parameter name="warmup_steps" condition="int">0</parameter>
<parameter name="warmupsteps" condition="int">0</parameter>
  DumpConfig==false Nothing (configurations, state) will be saved.
  Walker Samples are dumped every 1 steps.
</vmc>
    Restarting, cummulative properties:
      energy     = -3.7235e+00
      variance   = 0.0000e+00
      r2accepted = 1.0000e-10
      r2proposed = 1.0000e-10
  Set drift_modifier UNR parameter a = 1.0000e+00
 Using QMCCostFunction::QMCCostFunction
  Set drift_modifier UNR parameter a = 1.0000e+00
  EstimatorManagerBase::add replace LocalEnergy estimator.
<optimization-report>
<vmc stage="main" blocks="500">
  Cannot make clones again. Use existing 1 clones
  Initial partition of walkers 0 1 

  Using Particle by Particle moves
  Walker moves without drift
  Total Sample Size   =512000
  Walker distribution on root = 0 1 
  Using Locality Approximation
===== Memory Usage after the buffer registration =====
Available memory on node 0, free + buffers : 52771 MB
Memory footprint by rank 0 on node 0       : 574 MB
==================================================
  Anonymous Buffer size per walker : 1440 Bytes.
MEMORY increase 0 MB VMC::resetRun
====================================================
  SimpleFixedNodeBranch::finalize after a VMC block
    QMC counter        = 1
    time step          = 0.15
    reference energy   = -3.72055
    reference variance = 0.0375656
====================================================
  Execution time = 3.3213e+00
</vmc>
<opt stage="setup">
  <log>
   Reading configurations from h5FileRoot Ge.log.s001
  QMCCostFunction is created with 1 threads.
  Using Nonlocal PP in Opt: NonLocalECP
   Number of samples loaded to each thread : 500 
  VMC Eavg = -3.6372e+00
  VMC Evar = 8.6806e-01
  Total weights = 5.1200e+05
  Execution time = 8.2408e-01
  </log>
</opt>
<opt stage="main" walkers="512000">
  <log>

*****************************************
Building overlap and Hamiltonian matrices
*****************************************

Among totally 82 optimized parameters, largest LM parameter change : 3.3453e-02 at parameter 21

******************************************************************************
Init Cost =  -3.4120e+00    New Cost =  -3.4335e+00  Delta Cost =  -2.1513e-02
******************************************************************************

The new set of parameters is valid. Updating the trial wave function!

*****************************************************************************
Applying the update for shift_i =   1.0000e-02     and shift_s =   2.5000e-01
*****************************************************************************
  Execution time = 5.0881e+00
  </log>
  <optVariables href="Ge.log.s001.opt.xml">
   uu_0                 3.781521e-01 1 1  ON 0
   uu_1                 2.108501e-01 1 1  ON 1
   uu_2                 9.129378e-02 1 1  ON 2
   uu_3                 1.414336e-02 1 1  ON 3
   uu_4                -4.782079e-02 1 1  ON 4
   uu_5                -9.671973e-02 1 1  ON 5
   uu_6                -1.262092e-01 1 1  ON 6
   uu_7                -1.358303e-01 1 1  ON 7
   uu_8                -1.219039e-01 1 1  ON 8
   uu_9                -1.001904e-01 1 1  ON 9
   ud_0                 1.291958e+00 1 1  ON 10
   ud_1                 9.252256e-01 1 1  ON 11
   ud_2                 6.642156e-01 1 1  ON 12
   ud_3                 4.636610e-01 1 1  ON 13
   ud_4                 3.152127e-01 1 1  ON 14
   ud_5                 1.925867e-01 1 1  ON 15
   ud_6                 8.044179e-02 1 1  ON 16
   ud_7                -1.041464e-02 1 1  ON 17
   ud_8                -7.506122e-02 1 1  ON 18
   ud_9                -1.245100e-01 1 1  ON 19
  eGe_0                -5.189002e-01 1 1  ON 20
  eGe_1                -4.710315e-01 1 1  ON 21
  eGe_2                -4.693298e-01 1 1  ON 22
  eGe_3                -2.587982e-01 1 1  ON 23
  eGe_4                -1.553901e-02 1 1  ON 24
  eGe_5                 1.349127e-01 1 1  ON 25
  eGe_6                 2.760750e-01 1 1  ON 26
  eGe_7                 3.761607e-01 1 1  ON 27
  eGe_8                 3.834141e-01 1 1  ON 28
  eGe_9                 3.164485e-01 1 1  ON 29
 uuGe_0                 1.937101e-05 1 1  ON 30
 uuGe_1                 6.320235e-05 1 1  ON 31
 uuGe_2                 3.789331e-05 1 1  ON 32
 uuGe_3                -3.388103e-05 1 1  ON 33
 uuGe_4                -1.180975e-05 1 1  ON 34
 uuGe_5                -2.700623e-06 1 1  ON 35
 uuGe_6                 3.607866e-05 1 1  ON 36
 uuGe_7                 1.045243e-04 1 1  ON 37
 uuGe_8                 7.593978e-05 1 1  ON 38
 uuGe_9                -8.976422e-05 1 1  ON 39
uuGe_10                -1.499998e-05 1 1  ON 40
uuGe_11                -7.912451e-05 1 1  ON 41
uuGe_12                -1.036944e-05 1 1  ON 42
uuGe_13                 6.761963e-05 1 1  ON 43
uuGe_14                 1.949362e-05 1 1  ON 44
uuGe_15                -1.086523e-06 1 1  ON 45
uuGe_16                 5.217176e-05 1 1  ON 46
uuGe_17                 5.691158e-05 1 1  ON 47
uuGe_18                 2.524336e-05 1 1  ON 48
uuGe_19                -3.097628e-06 1 1  ON 49
uuGe_20                -3.021337e-05 1 1  ON 50
uuGe_21                -4.265298e-06 1 1  ON 51
uuGe_22                 1.278503e-06 1 1  ON 52
uuGe_23                 7.922380e-06 1 1  ON 53
uuGe_24                 1.370053e-07 1 1  ON 54
uuGe_25                -2.529184e-07 1 1  ON 55
 udGe_0                -8.521971e-05 1 1  ON 56
 udGe_1                -3.147221e-04 1 1  ON 57
 udGe_2                -3.565676e-05 1 1  ON 58
 udGe_3                 2.802079e-04 1 1  ON 59
 udGe_4                 5.172528e-05 1 1  ON 60
 udGe_5                 2.347287e-05 1 1  ON 61
 udGe_6                -1.820369e-04 1 1  ON 62
 udGe_7                 4.604442e-05 1 1  ON 63
 udGe_8                -1.796304e-04 1 1  ON 64
 udGe_9                 1.619666e-04 1 1  ON 65
udGe_10                 1.710823e-04 1 1  ON 66
udGe_11                -1.184842e-05 1 1  ON 67
udGe_12                 5.301132e-05 1 1  ON 68
udGe_13                -3.030096e-04 1 1  ON 69
udGe_14                -5.103623e-05 1 1  ON 70
udGe_15                 1.721178e-07 1 1  ON 71
udGe_16                 7.351169e-05 1 1  ON 72
udGe_17                -3.359226e-04 1 1  ON 73
udGe_18                 9.043628e-05 1 1  ON 74
udGe_19                -2.158509e-05 1 1  ON 75
udGe_20                 6.918426e-05 1 1  ON 76
udGe_21                -3.688827e-06 1 1  ON 77
udGe_22                 1.300706e-06 1 1  ON 78
udGe_23                -1.221757e-05 1 1  ON 79
udGe_24                 1.506275e-06 1 1  ON 80
udGe_25                -1.981562e-07 1 1  ON 81
  </optVariables>
   Restore the number of walkers to 1, removing 0 walkers.
</opt>
</optimization-report>
  QMC Execution time = 5.1 secs
  Reusing QMCFixedSampleLinearOptimize
 Using QMCCostFunction::QMCCostFunction

=========================================================
  Start QMCFixedSampleLinearOptimize
  File Root Ge.log.s002 append = no 
=========================================================
  Skip QMCDriver::putQMCInfo 
  Resetting Properties of the walkers 1 x 13

=========================================================
  Start VMC
  File Root Ge.log.s002 append = no 
=========================================================
Using existing walkers 
  Resetting Properties of the walkers 1 x 13

<vmc function="put">
  qmc_counter=1  my_counter=1
  time step      = 1.5000e-01
  blocks         = 500
  steps          = 1
  substeps       = 5
  current        = 0
  target samples = 5.1200e+05
  walkers/mpi    = 1

  stepsbetweensamples = 1
<parameter name="blocks" condition="int">500</parameter>
<parameter name="blocks_between_recompute" condition="int">0</parameter>
<parameter name="check_properties" condition="int">100</parameter>
<parameter name="checkproperties" condition="int">100</parameter>
<parameter name="current" condition="int">0</parameter>
<parameter name="dmcwalkersperthread" condition="real">5.0000e+02</parameter>
<parameter name="maxcpusecs" condition="real">3.6000e+05</parameter>
<parameter name="record_configs" condition="int">0</parameter>
<parameter name="record_walkers" condition="int">1</parameter>
<parameter name="recordconfigs" condition="int">0</parameter>
<parameter name="recordwalkers" condition="int">1</parameter>
<parameter name="rewind" condition="int">0</parameter>
<parameter name="samples" condition="real">5.1200e+05</parameter>
<parameter name="samplesperthread" condition="real">5.0000e+02</parameter>
<parameter name="steps" condition="int">1</parameter>
<parameter name="stepsbetweensamples" condition="int">1</parameter>
<parameter name="store_configs" condition="int">0</parameter>
<parameter name="storeconfigs" condition="int">0</parameter>
<parameter name="sub_steps" condition="int">5</parameter>
<parameter name="substeps" condition="int">5</parameter>
<parameter name="tau" condition="au">1.5000e-01</parameter>
<parameter name="time_step" condition="au">1.5000e-01</parameter>
<parameter name="timestep" condition="au">1.5000e-01</parameter>
<parameter name="use_drift" condition="string">no</parameter>
<parameter name="usedrift" condition="string">no</parameter>
<parameter name="walkers" condition="int">1</parameter>
<parameter name="warmup_steps" condition="int">0</parameter>
<parameter name="warmupsteps" condition="int">0</parameter>
  DumpConfig==false Nothing (configurations, state) will be saved.
  Walker Samples are dumped every 1 steps.
</vmc>
  Set drift_modifier UNR parameter a = 1.0000e+00
  EstimatorManagerBase::add replace LocalEnergy estimator.
  Set drift_modifier UNR parameter a = 1.0000e+00
  EstimatorManagerBase::add replace LocalEnergy estimator.
<optimization-report>
<vmc stage="main" blocks="500">
  Cannot make clones again. Use existing 1 clones
  Initial partition of walkers 0 1 
  Using Particle by Particle moves
  Walker moves without drift
  Total Sample Size   =512000
  Walker distribution on root = 0 1 
  Using Locality Approximation
===== Memory Usage after the buffer registration =====
Available memory on node 0, free + buffers : 52064 MB
Memory footprint by rank 0 on node 0       : 588 MB
==================================================
====================================================
  SimpleFixedNodeBranch::finalize after a VMC block
    QMC counter        = 2
    time step          = 0.15
    reference energy   = -3.72792
    reference variance = 0.0580974
====================================================
  Execution time = 3.3305e+00
</vmc>
<opt stage="setup">
  <log>
   Reading configurations from h5FileRoot Ge.log.s002
  QMCCostFunction is created with 1 threads.
  Using Nonlocal PP in Opt: NonLocalECP
   Number of samples loaded to each thread : 500 
  VMC Eavg = -3.6542e+00
  VMC Evar = 5.7353e-01
  Total weights = 5.1200e+05
  Execution time = 8.2585e-01
  </log>
</opt>
<opt stage="main" walkers="512000">
  <log>

*****************************************
Building overlap and Hamiltonian matrices
*****************************************

Among totally 82 optimized parameters, largest LM parameter change : 2.3515e-02 at parameter 17

******************************************************************************
Init Cost =  -3.4428e+00    New Cost =  -3.4436e+00  Delta Cost =  -8.2746e-04
******************************************************************************

The new set of parameters is valid. Updating the trial wave function!

*****************************************************************************
Applying the update for shift_i =   1.0000e-02     and shift_s =   6.2500e-02
*****************************************************************************
  Execution time = 5.0488e+00
  </log>
  <optVariables href="Ge.log.s002.opt.xml">
   uu_0                 3.828446e-01 1 1  ON 0
   uu_1                 2.265042e-01 1 1  ON 1
   uu_2                 1.143069e-01 1 1  ON 2
   uu_3                 3.225934e-02 1 1  ON 3
   uu_4                -3.748060e-02 1 1  ON 4
   uu_5                -9.445356e-02 1 1  ON 5
   uu_6                -1.302943e-01 1 1  ON 6
   uu_7                -1.399082e-01 1 1  ON 7
   uu_8                -1.277417e-01 1 1  ON 8
   uu_9                -1.076400e-01 1 1  ON 9
   ud_0                 1.291792e+00 1 1  ON 10
   ud_1                 9.183243e-01 1 1  ON 11
   ud_2                 6.585194e-01 1 1  ON 12
   ud_3                 4.614323e-01 1 1  ON 13
   ud_4                 3.231769e-01 1 1  ON 14
   ud_5                 2.073655e-01 1 1  ON 15
   ud_6                 9.770340e-02 1 1  ON 16
   ud_7                 1.310045e-02 1 1  ON 17
   ud_8                -5.273494e-02 1 1  ON 18
   ud_9                -1.043578e-01 1 1  ON 19
  eGe_0                -5.350331e-01 1 1  ON 20
  eGe_1                -4.664912e-01 1 1  ON 21
  eGe_2                -4.720619e-01 1 1  ON 22
  eGe_3                -2.654221e-01 1 1  ON 23
  eGe_4                -9.199217e-03 1 1  ON 24
  eGe_5                 1.354521e-01 1 1  ON 25
  eGe_6                 2.761677e-01 1 1  ON 26
  eGe_7                 3.743152e-01 1 1  ON 27
  eGe_8                 3.826728e-01 1 1  ON 28
  eGe_9                 3.155675e-01 1 1  ON 29
 uuGe_0                 1.631200e-05 1 1  ON 30
 uuGe_1                 3.983593e-05 1 1  ON 31
 uuGe_2                 3.418458e-05 1 1  ON 32
 uuGe_3                -1.920794e-05 1 1  ON 33
 uuGe_4                -7.918958e-06 1 1  ON 34
 uuGe_5                 2.195852e-07 1 1  ON 35
 uuGe_6                 5.388993e-06 1 1  ON 36
 uuGe_7                 1.273050e-04 1 1  ON 37
 uuGe_8                 6.931317e-05 1 1  ON 38
 uuGe_9                -7.844372e-05 1 1  ON 39
uuGe_10                -4.314627e-06 1 1  ON 40
uuGe_11                -8.452188e-05 1 1  ON 41
uuGe_12                -6.380370e-06 1 1  ON 42
uuGe_13                 5.959700e-05 1 1  ON 43
uuGe_14                 1.799950e-05 1 1  ON 44
uuGe_15                -1.327001e-06 1 1  ON 45
uuGe_16                 3.808191e-05 1 1  ON 46
uuGe_17                 5.387763e-05 1 1  ON 47
uuGe_18                 2.615219e-05 1 1  ON 48
uuGe_19                -5.217676e-06 1 1  ON 49
uuGe_20                -2.691632e-05 1 1  ON 50
uuGe_21                -4.034363e-06 1 1  ON 51
uuGe_22                 1.499171e-06 1 1  ON 52
uuGe_23                 8.113223e-06 1 1  ON 53
uuGe_24                 1.519887e-07 1 1  ON 54
uuGe_25                -2.876773e-07 1 1  ON 55
 udGe_0                -1.436099e-04 1 1  ON 56
 udGe_1                -1.300789e-04 1 1  ON 57
 udGe_2                 3.468246e-06 1 1  ON 58
 udGe_3                 2.810105e-04 1 1  ON 59
 udGe_4                 4.811169e-05 1 1  ON 60
 udGe_5                -3.001201e-06 1 1  ON 61
 udGe_6                 1.726235e-04 1 1  ON 62
 udGe_7                -1.410209e-04 1 1  ON 63
 udGe_8                -2.290378e-04 1 1  ON 64
 udGe_9                 4.377957e-05 1 1  ON 65
udGe_10                 1.465143e-04 1 1  ON 66
udGe_11                 9.309905e-05 1 1  ON 67
udGe_12                 5.983038e-05 1 1  ON 68
udGe_13                -3.441784e-04 1 1  ON 69
udGe_14                -7.509657e-05 1 1  ON 70
udGe_15                 1.615589e-06 1 1  ON 71
udGe_16                 1.785644e-04 1 1  ON 72
udGe_17                -3.869857e-04 1 1  ON 73
udGe_18                 3.664333e-05 1 1  ON 74
udGe_19                -1.765160e-05 1 1  ON 75
udGe_20                 8.128038e-05 1 1  ON 76
udGe_21                 6.442759e-06 1 1  ON 77
udGe_22                -1.816645e-07 1 1  ON 78
udGe_23                -1.789165e-05 1 1  ON 79
udGe_24                 2.214957e-07 1 1  ON 80
udGe_25                 8.680378e-08 1 1  ON 81
  </optVariables>
   Restore the number of walkers to 1, removing 0 walkers.
</opt>
</optimization-report>
  QMC Execution time = 5.06 secs
  Reusing QMCFixedSampleLinearOptimize
 Using QMCCostFunction::QMCCostFunction

=========================================================
  Start QMCFixedSampleLinearOptimize
  File Root Ge.log.s003 append = no 
=========================================================
  Skip QMCDriver::putQMCInfo 
  Resetting Properties of the walkers 1 x 13

=========================================================
  Start VMC
  File Root Ge.log.s003 append = no 
=========================================================
Using existing walkers 
  Resetting Properties of the walkers 1 x 13

<vmc function="put">
  qmc_counter=2  my_counter=2
  time step      = 1.5000e-01
  blocks         = 500
  steps          = 1
  substeps       = 5
  current        = 0
  target samples = 5.1200e+05
  walkers/mpi    = 1

  stepsbetweensamples = 1
<parameter name="blocks" condition="int">500</parameter>
<parameter name="blocks_between_recompute" condition="int">0</parameter>
<parameter name="check_properties" condition="int">100</parameter>
<parameter name="checkproperties" condition="int">100</parameter>
<parameter name="current" condition="int">0</parameter>
<parameter name="dmcwalkersperthread" condition="real">5.0000e+02</parameter>
<parameter name="maxcpusecs" condition="real">3.6000e+05</parameter>
<parameter name="record_configs" condition="int">0</parameter>
<parameter name="record_walkers" condition="int">1</parameter>
<parameter name="recordconfigs" condition="int">0</parameter>
<parameter name="recordwalkers" condition="int">1</parameter>
<parameter name="rewind" condition="int">0</parameter>
<parameter name="samples" condition="real">5.1200e+05</parameter>
<parameter name="samplesperthread" condition="real">5.0000e+02</parameter>
<parameter name="steps" condition="int">1</parameter>
<parameter name="stepsbetweensamples" condition="int">1</parameter>
<parameter name="store_configs" condition="int">0</parameter>
<parameter name="storeconfigs" condition="int">0</parameter>
<parameter name="sub_steps" condition="int">5</parameter>
<parameter name="substeps" condition="int">5</parameter>
<parameter name="tau" condition="au">1.5000e-01</parameter>
<parameter name="time_step" condition="au">1.5000e-01</parameter>
<parameter name="timestep" condition="au">1.5000e-01</parameter>
<parameter name="use_drift" condition="string">no</parameter>
<parameter name="usedrift" condition="string">no</parameter>
<parameter name="walkers" condition="int">1</parameter>
<parameter name="warmup_steps" condition="int">0</parameter>
<parameter name="warmupsteps" condition="int">0</parameter>
  DumpConfig==false Nothing (configurations, state) will be saved.
  Walker Samples are dumped every 1 steps.
</vmc>
  Set drift_modifier UNR parameter a = 1.0000e+00
  EstimatorManagerBase::add replace LocalEnergy estimator.
  Set drift_modifier UNR parameter a = 1.0000e+00
  EstimatorManagerBase::add replace LocalEnergy estimator.
<optimization-report>
<vmc stage="main" blocks="500">
  Cannot make clones again. Use existing 1 clones
  Initial partition of walkers 0 1 
  Using Particle by Particle moves
  Walker moves without drift
  Total Sample Size   =512000
  Walker distribution on root = 0 1 
  Using Locality Approximation
===== Memory Usage after the buffer registration =====
Available memory on node 0, free + buffers : 52060 MB
Memory footprint by rank 0 on node 0       : 592 MB
==================================================
====================================================
  SimpleFixedNodeBranch::finalize after a VMC block
    QMC counter        = 3
    time step          = 0.15
    reference energy   = -3.71318
    reference variance = 0.049588
====================================================
  Execution time = 3.3464e+00
</vmc>
<opt stage="setup">
  <log>
   Reading configurations from h5FileRoot Ge.log.s003
  QMCCostFunction is created with 1 threads.
  Using Nonlocal PP in Opt: NonLocalECP
   Number of samples loaded to each thread : 500 
  VMC Eavg = -3.6469e+00
  VMC Evar = 5.8056e-01
  Total weights = 5.1200e+05
  Execution time = 8.5635e-01
  </log>
</opt>
<opt stage="main" walkers="512000">
  <log>

*****************************************
Building overlap and Hamiltonian matrices
*****************************************

Among totally 82 optimized parameters, largest LM parameter change : 1.8713e-02 at parameter 16

******************************************************************************
Init Cost =  -3.4355e+00    New Cost =  -3.4394e+00  Delta Cost =  -3.9048e-03
******************************************************************************

The new set of parameters is valid. Updating the trial wave function!

*****************************************************************************
Applying the update for shift_i =   1.0000e-02     and shift_s =   1.5625e-02
*****************************************************************************
  Execution time = 5.1028e+00
  </log>
  <optVariables href="Ge.log.s003.opt.xml">
   uu_0                 3.907527e-01 1 1  ON 0
   uu_1                 2.426152e-01 1 1  ON 1
   uu_2                 1.225682e-01 1 1  ON 2
   uu_3                 3.742002e-02 1 1  ON 3
   uu_4                -3.456960e-02 1 1  ON 4
   uu_5                -9.284367e-02 1 1  ON 5
   uu_6                -1.299875e-01 1 1  ON 6
   uu_7                -1.436941e-01 1 1  ON 7
   uu_8                -1.272788e-01 1 1  ON 8
   uu_9                -1.087474e-01 1 1  ON 9
   ud_0                 1.289168e+00 1 1  ON 10
   ud_1                 9.078745e-01 1 1  ON 11
   ud_2                 6.544631e-01 1 1  ON 12
   ud_3                 4.633599e-01 1 1  ON 13
   ud_4                 3.335035e-01 1 1  ON 14
   ud_5                 2.224176e-01 1 1  ON 15
   ud_6                 1.164164e-01 1 1  ON 16
   ud_7                 2.964116e-02 1 1  ON 17
   ud_8                -3.712102e-02 1 1  ON 18
   ud_9                -8.843761e-02 1 1  ON 19
  eGe_0                -5.365103e-01 1 1  ON 20
  eGe_1                -4.677647e-01 1 1  ON 21
  eGe_2                -4.733032e-01 1 1  ON 22
  eGe_3                -2.774800e-01 1 1  ON 23
  eGe_4                -2.025248e-02 1 1  ON 24
  eGe_5                 1.270783e-01 1 1  ON 25
  eGe_6                 2.723379e-01 1 1  ON 26
  eGe_7                 3.688630e-01 1 1  ON 27
  eGe_8                 3.858509e-01 1 1  ON 28
  eGe_9                 3.238181e-01 1 1  ON 29
 uuGe_0                 1.756006e-05 1 1  ON 30
 uuGe_1                 3.777621e-05 1 1  ON 31
 uuGe_2                 4.220738e-05 1 1  ON 32
 uuGe_3                -1.095933e-05 1 1  ON 33
 uuGe_4                -9.139257e-06 1 1  ON 34
 uuGe_5                 9.253134e-07 1 1  ON 35
 uuGe_6                 7.660050e-06 1 1  ON 36
 uuGe_7                 1.720655e-04 1 1  ON 37
 uuGe_8                 7.833210e-05 1 1  ON 38
 uuGe_9                -9.895386e-05 1 1  ON 39
uuGe_10                 1.793770e-07 1 1  ON 40
uuGe_11                -1.117698e-04 1 1  ON 41
uuGe_12                -5.841394e-06 1 1  ON 42
uuGe_13                 5.063949e-05 1 1  ON 43
uuGe_14                 2.010234e-05 1 1  ON 44
uuGe_15                -1.610477e-06 1 1  ON 45
uuGe_16                 7.469622e-05 1 1  ON 46
uuGe_17                 3.802416e-05 1 1  ON 47
uuGe_18                 4.118422e-05 1 1  ON 48
uuGe_19                -7.239375e-06 1 1  ON 49
uuGe_20                -2.890924e-05 1 1  ON 50
uuGe_21                -5.150780e-06 1 1  ON 51
uuGe_22                 1.798049e-06 1 1  ON 52
uuGe_23                 8.192250e-06 1 1  ON 53
uuGe_24                 1.404204e-07 1 1  ON 54
uuGe_25                -3.164315e-07 1 1  ON 55
 udGe_0                -1.025731e-04 1 1  ON 56
 udGe_1                -2.589070e-04 1 1  ON 57
 udGe_2                -1.932113e-05 1 1  ON 58
 udGe_3                 3.495224e-04 1 1  ON 59
 udGe_4                 6.935903e-05 1 1  ON 60
 udGe_5                 1.594363e-05 1 1  ON 61
 udGe_6                -5.280449e-05 1 1  ON 62
 udGe_7                 5.901000e-06 1 1  ON 63
 udGe_8                -2.390449e-04 1 1  ON 64
 udGe_9                 9.229726e-05 1 1  ON 65
udGe_10                 2.221036e-04 1 1  ON 66
udGe_11                -1.195504e-05 1 1  ON 67
udGe_12                 7.501753e-05 1 1  ON 68
udGe_13                -3.941726e-04 1 1  ON 69
udGe_14                -7.537775e-05 1 1  ON 70
udGe_15                 4.887124e-07 1 1  ON 71
udGe_16                 1.698587e-04 1 1  ON 72
udGe_17                -4.750316e-04 1 1  ON 73
udGe_18                 1.262535e-04 1 1  ON 74
udGe_19                -3.129815e-05 1 1  ON 75
udGe_20                 9.376819e-05 1 1  ON 76
udGe_21                -4.243181e-06 1 1  ON 77
udGe_22                 1.752130e-06 1 1  ON 78
udGe_23                -1.976211e-05 1 1  ON 79
udGe_24                 2.164905e-06 1 1  ON 80
udGe_25                -2.613297e-07 1 1  ON 81
  </optVariables>
   Restore the number of walkers to 1, removing 0 walkers.
</opt>
</optimization-report>
  QMC Execution time = 5.115 secs
  Reusing QMCFixedSampleLinearOptimize
 Using QMCCostFunction::QMCCostFunction

=========================================================
  Start QMCFixedSampleLinearOptimize
  File Root Ge.log.s004 append = no 
=========================================================
  Skip QMCDriver::putQMCInfo 
  Resetting Properties of the walkers 1 x 13

=========================================================
  Start VMC
  File Root Ge.log.s004 append = no 
=========================================================
Using existing walkers 
  Resetting Properties of the walkers 1 x 13

<vmc function="put">
  qmc_counter=3  my_counter=3
  time step      = 1.5000e-01
  blocks         = 500
  steps          = 1
  substeps       = 5
  current        = 0
  target samples = 5.1200e+05
  walkers/mpi    = 1

  stepsbetweensamples = 1
<parameter name="blocks" condition="int">500</parameter>
<parameter name="blocks_between_recompute" condition="int">0</parameter>
<parameter name="check_properties" condition="int">100</parameter>
<parameter name="checkproperties" condition="int">100</parameter>
<parameter name="current" condition="int">0</parameter>
<parameter name="dmcwalkersperthread" condition="real">5.0000e+02</parameter>
<parameter name="maxcpusecs" condition="real">3.6000e+05</parameter>
<parameter name="record_configs" condition="int">0</parameter>
<parameter name="record_walkers" condition="int">1</parameter>
<parameter name="recordconfigs" condition="int">0</parameter>
<parameter name="recordwalkers" condition="int">1</parameter>
<parameter name="rewind" condition="int">0</parameter>
<parameter name="samples" condition="real">5.1200e+05</parameter>
<parameter name="samplesperthread" condition="real">5.0000e+02</parameter>
<parameter name="steps" condition="int">1</parameter>
<parameter name="stepsbetweensamples" condition="int">1</parameter>
<parameter name="store_configs" condition="int">0</parameter>
<parameter name="storeconfigs" condition="int">0</parameter>
<parameter name="sub_steps" condition="int">5</parameter>
<parameter name="substeps" condition="int">5</parameter>
<parameter name="tau" condition="au">1.5000e-01</parameter>
<parameter name="time_step" condition="au">1.5000e-01</parameter>
<parameter name="timestep" condition="au">1.5000e-01</parameter>
<parameter name="use_drift" condition="string">no</parameter>
<parameter name="usedrift" condition="string">no</parameter>
<parameter name="walkers" condition="int">1</parameter>
<parameter name="warmup_steps" condition="int">0</parameter>
<parameter name="warmupsteps" condition="int">0</parameter>
  DumpConfig==false Nothing (configurations, state) will be saved.
  Walker Samples are dumped every 1 steps.
</vmc>
  Set drift_modifier UNR parameter a = 1.0000e+00
  EstimatorManagerBase::add replace LocalEnergy estimator.
  Set drift_modifier UNR parameter a = 1.0000e+00
  EstimatorManagerBase::add replace LocalEnergy estimator.
<optimization-report>
<vmc stage="main" blocks="500">
  Cannot make clones again. Use existing 1 clones
  Initial partition of walkers 0 1 
  Using Particle by Particle moves
  Walker moves without drift
  Total Sample Size   =512000
  Walker distribution on root = 0 1 
  Using Locality Approximation
===== Memory Usage after the buffer registration =====
Available memory on node 0, free + buffers : 52056 MB
Memory footprint by rank 0 on node 0       : 595 MB
==================================================
====================================================
  SimpleFixedNodeBranch::finalize after a VMC block
    QMC counter        = 4
    time step          = 0.15
    reference energy   = -3.72968
    reference variance = 0.082736
====================================================
  Execution time = 3.3564e+00
</vmc>
<opt stage="setup">
  <log>
   Reading configurations from h5FileRoot Ge.log.s004
  QMCCostFunction is created with 1 threads.
  Using Nonlocal PP in Opt: NonLocalECP
   Number of samples loaded to each thread : 500 
  VMC Eavg = -3.6456e+00
  VMC Evar = 5.1515e-01
  Total weights = 5.1200e+05
  Execution time = 8.4857e-01
  </log>
</opt>
<opt stage="main" walkers="512000">
  <log>

*****************************************
Building overlap and Hamiltonian matrices
*****************************************

Among totally 82 optimized parameters, largest LM parameter change : 1.8455e-02 at parameter 21

******************************************************************************
Init Cost =  -3.4375e+00    New Cost =  -3.4390e+00  Delta Cost =  -1.4357e-03
******************************************************************************

The new set of parameters is valid. Updating the trial wave function!

*****************************************************************************
Applying the update for shift_i =   1.0000e-02     and shift_s =   3.9062e-03
*****************************************************************************
  Execution time = 5.1208e+00
  </log>
  <optVariables href="Ge.log.s004.opt.xml">
   uu_0                 3.993399e-01 1 1  ON 0
   uu_1                 2.599415e-01 1 1  ON 1
   uu_2                 1.397081e-01 1 1  ON 2
   uu_3                 5.274466e-02 1 1  ON 3
   uu_4                -2.346895e-02 1 1  ON 4
   uu_5                -8.635229e-02 1 1  ON 5
   uu_6                -1.249948e-01 1 1  ON 6
   uu_7                -1.388472e-01 1 1  ON 7
   uu_8                -1.307761e-01 1 1  ON 8
   uu_9                -1.159339e-01 1 1  ON 9
   ud_0                 1.285724e+00 1 1  ON 10
   ud_1                 9.060608e-01 1 1  ON 11
   ud_2                 6.560060e-01 1 1  ON 12
   ud_3                 4.707897e-01 1 1  ON 13
   ud_4                 3.428014e-01 1 1  ON 14
   ud_5                 2.336643e-01 1 1  ON 15
   ud_6                 1.281712e-01 1 1  ON 16
   ud_7                 4.197780e-02 1 1  ON 17
   ud_8                -2.564331e-02 1 1  ON 18
   ud_9                -7.403885e-02 1 1  ON 19
  eGe_0                -5.441070e-01 1 1  ON 20
  eGe_1                -4.862196e-01 1 1  ON 21
  eGe_2                -4.702216e-01 1 1  ON 22
  eGe_3                -2.752021e-01 1 1  ON 23
  eGe_4                -1.531860e-02 1 1  ON 24
  eGe_5                 1.402901e-01 1 1  ON 25
  eGe_6                 2.745046e-01 1 1  ON 26
  eGe_7                 3.592644e-01 1 1  ON 27
  eGe_8                 3.761058e-01 1 1  ON 28
  eGe_9                 3.223586e-01 1 1  ON 29
 uuGe_0                 1.178345e-05 1 1  ON 30
 uuGe_1                 1.023105e-04 1 1  ON 31
 uuGe_2                 4.534334e-05 1 1  ON 32
 uuGe_3                -4.114525e-05 1 1  ON 33
 uuGe_4                -1.517145e-05 1 1  ON 34
 uuGe_5                -5.593910e-06 1 1  ON 35
 uuGe_6                 9.965344e-05 1 1  ON 36
 uuGe_7                 1.094149e-04 1 1  ON 37
 uuGe_8                 7.263092e-05 1 1  ON 38
 uuGe_9                -1.335567e-04 1 1  ON 39
uuGe_10                -2.835579e-05 1 1  ON 40
uuGe_11                -6.444154e-05 1 1  ON 41
uuGe_12                -8.661776e-06 1 1  ON 42
uuGe_13                 7.169275e-05 1 1  ON 43
uuGe_14                 1.715709e-05 1 1  ON 44
uuGe_15                -1.137792e-06 1 1  ON 45
uuGe_16                 8.598917e-05 1 1  ON 46
uuGe_17                 6.777480e-05 1 1  ON 47
uuGe_18                 2.191760e-06 1 1  ON 48
uuGe_19                -2.453559e-06 1 1  ON 49
uuGe_20                -3.221608e-05 1 1  ON 50
uuGe_21                 9.829267e-08 1 1  ON 51
uuGe_22                 9.157112e-07 1 1  ON 52
uuGe_23                 7.643982e-06 1 1  ON 53
uuGe_24                -6.789603e-07 1 1  ON 54
uuGe_25                -1.488648e-07 1 1  ON 55
 udGe_0                -8.034081e-05 1 1  ON 56
 udGe_1                -1.368486e-04 1 1  ON 57
 udGe_2                -6.811025e-06 1 1  ON 58
 udGe_3                 2.851724e-04 1 1  ON 59
 udGe_4                 5.478148e-05 1 1  ON 60
 udGe_5                 9.446008e-06 1 1  ON 61
 udGe_6                 1.355647e-04 1 1  ON 62
 udGe_7                -1.283686e-04 1 1  ON 63
 udGe_8                -2.230032e-04 1 1  ON 64
 udGe_9                -3.718207e-05 1 1  ON 65
udGe_10                 1.668947e-04 1 1  ON 66
udGe_11                 5.162345e-05 1 1  ON 67
udGe_12                 6.324482e-05 1 1  ON 68
udGe_13                -3.097065e-04 1 1  ON 69
udGe_14                -7.372422e-05 1 1  ON 70
udGe_15                 1.314695e-06 1 1  ON 71
udGe_16                 2.765623e-04 1 1  ON 72
udGe_17                -4.085582e-04 1 1  ON 73
udGe_18                 7.415603e-05 1 1  ON 74
udGe_19                -2.212126e-05 1 1  ON 75
udGe_20                 4.828481e-05 1 1  ON 76
udGe_21                 2.462544e-06 1 1  ON 77
udGe_22                 4.184236e-07 1 1  ON 78
udGe_23                -8.137270e-06 1 1  ON 79
udGe_24                 5.983800e-07 1 1  ON 80
udGe_25                 1.001127e-08 1 1  ON 81
  </optVariables>
   Restore the number of walkers to 1, removing 0 walkers.
</opt>
</optimization-report>
  QMC Execution time = 5.133 secs
  Reusing QMCFixedSampleLinearOptimize
 Using QMCCostFunction::QMCCostFunction

=========================================================
  Start QMCFixedSampleLinearOptimize
  File Root Ge.log.s005 append = no 
=========================================================
  Skip QMCDriver::putQMCInfo 
  Resetting Properties of the walkers 1 x 13

=========================================================
  Start VMC
  File Root Ge.log.s005 append = no 
=========================================================
Using existing walkers 
  Resetting Properties of the walkers 1 x 13

<vmc function="put">
  qmc_counter=4  my_counter=4
  time step      = 1.5000e-01
  blocks         = 500
  steps          = 1
  substeps       = 5
  current        = 0
  target samples = 5.1200e+05
  walkers/mpi    = 1

  stepsbetweensamples = 1
<parameter name="blocks" condition="int">500</parameter>
<parameter name="blocks_between_recompute" condition="int">0</parameter>
<parameter name="check_properties" condition="int">100</parameter>
<parameter name="checkproperties" condition="int">100</parameter>
<parameter name="current" condition="int">0</parameter>
<parameter name="dmcwalkersperthread" condition="real">5.0000e+02</parameter>
<parameter name="maxcpusecs" condition="real">3.6000e+05</parameter>
<parameter name="record_configs" condition="int">0</parameter>
<parameter name="record_walkers" condition="int">1</parameter>
<parameter name="recordconfigs" condition="int">0</parameter>
<parameter name="recordwalkers" condition="int">1</parameter>
<parameter name="rewind" condition="int">0</parameter>
<parameter name="samples" condition="real">5.1200e+05</parameter>
<parameter name="samplesperthread" condition="real">5.0000e+02</parameter>
<parameter name="steps" condition="int">1</parameter>
<parameter name="stepsbetweensamples" condition="int">1</parameter>
<parameter name="store_configs" condition="int">0</parameter>
<parameter name="storeconfigs" condition="int">0</parameter>
<parameter name="sub_steps" condition="int">5</parameter>
<parameter name="substeps" condition="int">5</parameter>
<parameter name="tau" condition="au">1.5000e-01</parameter>
<parameter name="time_step" condition="au">1.5000e-01</parameter>
<parameter name="timestep" condition="au">1.5000e-01</parameter>
<parameter name="use_drift" condition="string">no</parameter>
<parameter name="usedrift" condition="string">no</parameter>
<parameter name="walkers" condition="int">1</parameter>
<parameter name="warmup_steps" condition="int">0</parameter>
<parameter name="warmupsteps" condition="int">0</parameter>
  DumpConfig==false Nothing (configurations, state) will be saved.
  Walker Samples are dumped every 1 steps.
</vmc>
  Set drift_modifier UNR parameter a = 1.0000e+00
  EstimatorManagerBase::add replace LocalEnergy estimator.
  Set drift_modifier UNR parameter a = 1.0000e+00
  EstimatorManagerBase::add replace LocalEnergy estimator.
<optimization-report>
<vmc stage="main" blocks="500">
  Cannot make clones again. Use existing 1 clones
  Initial partition of walkers 0 1 
  Using Particle by Particle moves
  Walker moves without drift
  Total Sample Size   =512000
  Walker distribution on root = 0 1 
  Using Locality Approximation
===== Memory Usage after the buffer registration =====
Available memory on node 0, free + buffers : 52052 MB
Memory footprint by rank 0 on node 0       : 598 MB
==================================================
====================================================
  SimpleFixedNodeBranch::finalize after a VMC block
    QMC counter        = 5
    time step          = 0.15
    reference energy   = -3.70719
    reference variance = 0.0624555
====================================================
  Execution time = 3.3537e+00
</vmc>
<opt stage="setup">
  <log>
   Reading configurations from h5FileRoot Ge.log.s005
  QMCCostFunction is created with 1 threads.
  Using Nonlocal PP in Opt: NonLocalECP
   Number of samples loaded to each thread : 500 
  VMC Eavg = -3.6502e+00
  VMC Evar = 5.2756e-01
  Total weights = 5.1200e+05
  Execution time = 8.7109e-01
  </log>
</opt>
<opt stage="main" walkers="512000">
  <log>

*****************************************
Building overlap and Hamiltonian matrices
*****************************************

Among totally 82 optimized parameters, largest LM parameter change : 1.9252e-02 at parameter 25

******************************************************************************
Init Cost =  -3.4413e+00    New Cost =  -3.4396e+00  Delta Cost =   1.7215e-03
******************************************************************************

The new set of parameters is valid. Updating the trial wave function!

*****************************************************************************
Applying the update for shift_i =   1.0000e-02     and shift_s =   3.9062e-03
*****************************************************************************
  Execution time = 5.1525e+00
  </log>
  <optVariables href="Ge.log.s005.opt.xml">
   uu_0                 4.077431e-01 1 1  ON 0
   uu_1                 2.688212e-01 1 1  ON 1
   uu_2                 1.422492e-01 1 1  ON 2
   uu_3                 5.180526e-02 1 1  ON 3
   uu_4                -2.417865e-02 1 1  ON 4
   uu_5                -8.522897e-02 1 1  ON 5
   uu_6                -1.243082e-01 1 1  ON 6
   uu_7                -1.390047e-01 1 1  ON 7
   uu_8                -1.293996e-01 1 1  ON 8
   uu_9                -1.109742e-01 1 1  ON 9
   ud_0                 1.286845e+00 1 1  ON 10
   ud_1                 9.090736e-01 1 1  ON 11
   ud_2                 6.628933e-01 1 1  ON 12
   ud_3                 4.787064e-01 1 1  ON 13
   ud_4                 3.493498e-01 1 1  ON 14
   ud_5                 2.397845e-01 1 1  ON 15
   ud_6                 1.356934e-01 1 1  ON 16
   ud_7                 5.611326e-02 1 1  ON 17
   ud_8                -1.013216e-02 1 1  ON 18
   ud_9                -6.020200e-02 1 1  ON 19
  eGe_0                -5.528967e-01 1 1  ON 20
  eGe_1                -4.891627e-01 1 1  ON 21
  eGe_2                -4.771532e-01 1 1  ON 22
  eGe_3                -2.760876e-01 1 1  ON 23
  eGe_4                -1.655970e-02 1 1  ON 24
  eGe_5                 1.210384e-01 1 1  ON 25
  eGe_6                 2.664923e-01 1 1  ON 26
  eGe_7                 3.743284e-01 1 1  ON 27
  eGe_8                 3.791180e-01 1 1  ON 28
  eGe_9                 3.283420e-01 1 1  ON 29
 uuGe_0                 2.261665e-05 1 1  ON 30
 uuGe_1                 6.148395e-05 1 1  ON 31
 uuGe_2                 3.519413e-05 1 1  ON 32
 uuGe_3                -2.683912e-05 1 1  ON 33
 uuGe_4                -1.229691e-05 1 1  ON 34
 uuGe_5                -1.272032e-06 1 1  ON 35
 uuGe_6                 4.005396e-05 1 1  ON 36
 uuGe_7                 1.382773e-04 1 1  ON 37
 uuGe_8                 7.128218e-05 1 1  ON 38
 uuGe_9                -1.136675e-04 1 1  ON 39
uuGe_10                -1.595716e-05 1 1  ON 40
uuGe_11                -8.682508e-05 1 1  ON 41
uuGe_12                -7.180823e-06 1 1  ON 42
uuGe_13                 6.129688e-05 1 1  ON 43
uuGe_14                 1.843627e-05 1 1  ON 44
uuGe_15                -1.349238e-06 1 1  ON 45
uuGe_16                 9.288739e-05 1 1  ON 46
uuGe_17                 4.750377e-05 1 1  ON 47
uuGe_18                 2.657883e-05 1 1  ON 48
uuGe_19                -5.159092e-06 1 1  ON 49
uuGe_20                -3.511702e-05 1 1  ON 50
uuGe_21                -3.335031e-06 1 1  ON 51
uuGe_22                 1.448188e-06 1 1  ON 52
uuGe_23                 9.492780e-06 1 1  ON 53
uuGe_24                -1.412602e-07 1 1  ON 54
uuGe_25                -2.570824e-07 1 1  ON 55
 udGe_0                -1.304257e-04 1 1  ON 56
 udGe_1                -2.262163e-05 1 1  ON 57
 udGe_2                 2.274212e-05 1 1  ON 58
 udGe_3                 2.408173e-04 1 1  ON 59
 udGe_4                 3.805954e-05 1 1  ON 60
 udGe_5                -7.784909e-06 1 1  ON 61
 udGe_6                 3.295599e-04 1 1  ON 62
 udGe_7                -2.264985e-04 1 1  ON 63
 udGe_8                -2.075169e-04 1 1  ON 64
 udGe_9                -6.321160e-05 1 1  ON 65
udGe_10                 1.140363e-04 1 1  ON 66
udGe_11                 1.222180e-04 1 1  ON 67
udGe_12                 5.078593e-05 1 1  ON 68
udGe_13                -2.831051e-04 1 1  ON 69
udGe_14                -7.120661e-05 1 1  ON 70
udGe_15                 1.967234e-06 1 1  ON 71
udGe_16                 2.369499e-04 1 1  ON 72
udGe_17                -3.397563e-04 1 1  ON 73
udGe_18                 9.977996e-06 1 1  ON 74
udGe_19                -1.232281e-05 1 1  ON 75
udGe_20                 5.501836e-05 1 1  ON 76
udGe_21                 9.025870e-06 1 1  ON 77
udGe_22                -7.474352e-07 1 1  ON 78
udGe_23                -1.142374e-05 1 1  ON 79
udGe_24                -4.113891e-07 1 1  ON 80
udGe_25                 1.829422e-07 1 1  ON 81
  </optVariables>
   Restore the number of walkers to 1, removing 0 walkers.
</opt>
</optimization-report>
  QMC Execution time = 5.165 secs
  Reusing QMCFixedSampleLinearOptimize
 Using QMCCostFunction::QMCCostFunction

=========================================================
  Start QMCFixedSampleLinearOptimize
  File Root Ge.log.s006 append = no 
=========================================================
  Skip QMCDriver::putQMCInfo 
  Resetting Properties of the walkers 1 x 13

=========================================================
  Start VMC
  File Root Ge.log.s006 append = no 
=========================================================
Using existing walkers 
  Resetting Properties of the walkers 1 x 13

<vmc function="put">
  qmc_counter=5  my_counter=5
  time step      = 1.5000e-01
  blocks         = 500
  steps          = 1
  substeps       = 5
  current        = 0
  target samples = 5.1200e+05
  walkers/mpi    = 1

  stepsbetweensamples = 1
<parameter name="blocks" condition="int">500</parameter>
<parameter name="blocks_between_recompute" condition="int">0</parameter>
<parameter name="check_properties" condition="int">100</parameter>
<parameter name="checkproperties" condition="int">100</parameter>
<parameter name="current" condition="int">0</parameter>
<parameter name="dmcwalkersperthread" condition="real">5.0000e+02</parameter>
<parameter name="maxcpusecs" condition="real">3.6000e+05</parameter>
<parameter name="record_configs" condition="int">0</parameter>
<parameter name="record_walkers" condition="int">1</parameter>
<parameter name="recordconfigs" condition="int">0</parameter>
<parameter name="recordwalkers" condition="int">1</parameter>
<parameter name="rewind" condition="int">0</parameter>
<parameter name="samples" condition="real">5.1200e+05</parameter>
<parameter name="samplesperthread" condition="real">5.0000e+02</parameter>
<parameter name="steps" condition="int">1</parameter>
<parameter name="stepsbetweensamples" condition="int">1</parameter>
<parameter name="store_configs" condition="int">0</parameter>
<parameter name="storeconfigs" condition="int">0</parameter>
<parameter name="sub_steps" condition="int">5</parameter>
<parameter name="substeps" condition="int">5</parameter>
<parameter name="tau" condition="au">1.5000e-01</parameter>
<parameter name="time_step" condition="au">1.5000e-01</parameter>
<parameter name="timestep" condition="au">1.5000e-01</parameter>
<parameter name="use_drift" condition="string">no</parameter>
<parameter name="usedrift" condition="string">no</parameter>
<parameter name="walkers" condition="int">1</parameter>
<parameter name="warmup_steps" condition="int">0</parameter>
<parameter name="warmupsteps" condition="int">0</parameter>
  DumpConfig==false Nothing (configurations, state) will be saved.
  Walker Samples are dumped every 1 steps.
</vmc>
  Set drift_modifier UNR parameter a = 1.0000e+00
  EstimatorManagerBase::add replace LocalEnergy estimator.
  Set drift_modifier UNR parameter a = 1.0000e+00
  EstimatorManagerBase::add replace LocalEnergy estimator.
<optimization-report>
<vmc stage="main" blocks="500">
  Cannot make clones again. Use existing 1 clones
  Initial partition of walkers 0 1 
  Using Particle by Particle moves
  Walker moves without drift
  Total Sample Size   =512000
  Walker distribution on root = 0 1 
  Using Locality Approximation
===== Memory Usage after the buffer registration =====
Available memory on node 0, free + buffers : 52048 MB
Memory footprint by rank 0 on node 0       : 601 MB
==================================================
====================================================
  SimpleFixedNodeBranch::finalize after a VMC block
    QMC counter        = 6
    time step          = 0.15
    reference energy   = -3.71908
    reference variance = 0.0706607
====================================================
  Execution time = 3.3717e+00
</vmc>
<opt stage="setup">
  <log>
   Reading configurations from h5FileRoot Ge.log.s006
  QMCCostFunction is created with 1 threads.
  Using Nonlocal PP in Opt: NonLocalECP
   Number of samples loaded to each thread : 500 
  VMC Eavg = -3.6407e+00
  VMC Evar = 6.2613e-01
  Total weights = 5.1200e+05
  Execution time = 8.4198e-01
  </log>
</opt>
<opt stage="main" walkers="512000">
  <log>

*****************************************
Building overlap and Hamiltonian matrices
*****************************************

Among totally 82 optimized parameters, largest LM parameter change : 1.6071e-02 at parameter 15

******************************************************************************
Init Cost =  -3.4273e+00    New Cost =  -3.4319e+00  Delta Cost =  -4.5960e-03
******************************************************************************

The new set of parameters is valid. Updating the trial wave function!

*****************************************************************************
Applying the update for shift_i =   1.0000e-02     and shift_s =   3.9062e-03
*****************************************************************************
  Execution time = 5.1443e+00
  </log>
  <optVariables href="Ge.log.s006.opt.xml">
   uu_0                 4.169518e-01 1 1  ON 0
   uu_1                 2.796955e-01 1 1  ON 1
   uu_2                 1.475573e-01 1 1  ON 2
   uu_3                 5.220403e-02 1 1  ON 3
   uu_4                -2.688482e-02 1 1  ON 4
   uu_5                -8.702447e-02 1 1  ON 5
   uu_6                -1.252681e-01 1 1  ON 6
   uu_7                -1.357835e-01 1 1  ON 7
   uu_8                -1.268870e-01 1 1  ON 8
   uu_9                -1.055977e-01 1 1  ON 9
   ud_0                 1.286025e+00 1 1  ON 10
   ud_1                 9.131433e-01 1 1  ON 11
   ud_2                 6.694850e-01 1 1  ON 12
   ud_3                 4.892202e-01 1 1  ON 13
   ud_4                 3.639950e-01 1 1  ON 14
   ud_5                 2.558560e-01 1 1  ON 15
   ud_6                 1.474994e-01 1 1  ON 16
   ud_7                 5.903628e-02 1 1  ON 17
   ud_8                -9.995074e-03 1 1  ON 18
   ud_9                -5.800954e-02 1 1  ON 19
  eGe_0                -5.541878e-01 1 1  ON 20
  eGe_1                -4.803238e-01 1 1  ON 21
  eGe_2                -4.790337e-01 1 1  ON 22
  eGe_3                -2.893498e-01 1 1  ON 23
  eGe_4                -3.232460e-02 1 1  ON 24
  eGe_5                 1.139640e-01 1 1  ON 25
  eGe_6                 2.635702e-01 1 1  ON 26
  eGe_7                 3.700333e-01 1 1  ON 27
  eGe_8                 3.816949e-01 1 1  ON 28
  eGe_9                 3.371145e-01 1 1  ON 29
 uuGe_0                 1.481142e-05 1 1  ON 30
 uuGe_1                 8.477742e-05 1 1  ON 31
 uuGe_2                 4.064810e-05 1 1  ON 32
 uuGe_3                -4.097023e-05 1 1  ON 33
 uuGe_4                -1.522168e-05 1 1  ON 34
 uuGe_5                -5.687421e-06 1 1  ON 35
 uuGe_6                 4.836454e-05 1 1  ON 36
 uuGe_7                 1.584550e-04 1 1  ON 37
 uuGe_8                 8.317361e-05 1 1  ON 38
 uuGe_9                -1.059305e-04 1 1  ON 39
uuGe_10                -2.482809e-05 1 1  ON 40
uuGe_11                -9.093530e-05 1 1  ON 41
uuGe_12                -1.002496e-05 1 1  ON 42
uuGe_13                 6.590252e-05 1 1  ON 43
uuGe_14                 2.247562e-05 1 1  ON 44
uuGe_15                -1.511326e-06 1 1  ON 45
uuGe_16                 5.447040e-05 1 1  ON 46
uuGe_17                 6.759472e-05 1 1  ON 47
uuGe_18                 2.261446e-05 1 1  ON 48
uuGe_19                -4.337066e-06 1 1  ON 49
uuGe_20                -2.562353e-05 1 1  ON 50
uuGe_21                -4.198410e-06 1 1  ON 51
uuGe_22                 1.566695e-06 1 1  ON 52
uuGe_23                 6.197658e-06 1 1  ON 53
uuGe_24                 2.310688e-07 1 1  ON 54
uuGe_25                -3.169305e-07 1 1  ON 55
 udGe_0                -1.450499e-04 1 1  ON 56
 udGe_1                -1.422719e-04 1 1  ON 57
 udGe_2                 4.025309e-05 1 1  ON 58
 udGe_3                 3.044395e-04 1 1  ON 59
 udGe_4                 4.747030e-05 1 1  ON 60
 udGe_5                 8.385184e-06 1 1  ON 61
 udGe_6                 2.184081e-04 1 1  ON 62
 udGe_7                -1.416239e-04 1 1  ON 63
 udGe_8                -2.060600e-04 1 1  ON 64
 udGe_9                -2.293180e-05 1 1  ON 65
udGe_10                 1.653151e-04 1 1  ON 66
udGe_11                 5.556205e-05 1 1  ON 67
udGe_12                 5.772878e-05 1 1  ON 68
udGe_13                -3.359021e-04 1 1  ON 69
udGe_14                -7.403864e-05 1 1  ON 70
udGe_15                 1.778746e-06 1 1  ON 71
udGe_16                 2.650879e-04 1 1  ON 72
udGe_17                -4.178734e-04 1 1  ON 73
udGe_18                 6.571972e-05 1 1  ON 74
udGe_19                -1.885663e-05 1 1  ON 75
udGe_20                 5.971900e-05 1 1  ON 76
udGe_21                 3.765214e-06 1 1  ON 77
udGe_22                -1.053422e-09 1 1  ON 78
udGe_23                -1.080029e-05 1 1  ON 79
udGe_24                 4.011340e-07 1 1  ON 80
udGe_25                 6.944538e-08 1 1  ON 81
  </optVariables>
   Restore the number of walkers to 1, removing 0 walkers.
</opt>
</optimization-report>
  QMC Execution time = 5.156 secs
  Reusing QMCFixedSampleLinearOptimize
 Using QMCCostFunction::QMCCostFunction

=========================================================
  Start QMCFixedSampleLinearOptimize
  File Root Ge.log.s007 append = no 
=========================================================
  Skip QMCDriver::putQMCInfo 
  Resetting Properties of the walkers 1 x 13

=========================================================
  Start VMC
  File Root Ge.log.s007 append = no 
=========================================================
Using existing walkers 
  Resetting Properties of the walkers 1 x 13

<vmc function="put">
  qmc_counter=6  my_counter=6
  time step      = 1.5000e-01
  blocks         = 500
  steps          = 1
  substeps       = 5
  current        = 0
  target samples = 5.1200e+05
  walkers/mpi    = 1

  stepsbetweensamples = 1
<parameter name="blocks" condition="int">500</parameter>
<parameter name="blocks_between_recompute" condition="int">0</parameter>
<parameter name="check_properties" condition="int">100</parameter>
<parameter name="checkproperties" condition="int">100</parameter>
<parameter name="current" condition="int">0</parameter>
<parameter name="dmcwalkersperthread" condition="real">5.0000e+02</parameter>
<parameter name="maxcpusecs" condition="real">3.6000e+05</parameter>
<parameter name="record_configs" condition="int">0</parameter>
<parameter name="record_walkers" condition="int">1</parameter>
<parameter name="recordconfigs" condition="int">0</parameter>
<parameter name="recordwalkers" condition="int">1</parameter>
<parameter name="rewind" condition="int">0</parameter>
<parameter name="samples" condition="real">5.1200e+05</parameter>
<parameter name="samplesperthread" condition="real">5.0000e+02</parameter>
<parameter name="steps" condition="int">1</parameter>
<parameter name="stepsbetweensamples" condition="int">1</parameter>
<parameter name="store_configs" condition="int">0</parameter>
<parameter name="storeconfigs" condition="int">0</parameter>
<parameter name="sub_steps" condition="int">5</parameter>
<parameter name="substeps" condition="int">5</parameter>
<parameter name="tau" condition="au">1.5000e-01</parameter>
<parameter name="time_step" condition="au">1.5000e-01</parameter>
<parameter name="timestep" condition="au">1.5000e-01</parameter>
<parameter name="use_drift" condition="string">no</parameter>
<parameter name="usedrift" condition="string">no</parameter>
<parameter name="walkers" condition="int">1</parameter>
<parameter name="warmup_steps" condition="int">0</parameter>
<parameter name="warmupsteps" condition="int">0</parameter>
  DumpConfig==false Nothing (configurations, state) will be saved.
  Walker Samples are dumped every 1 steps.
</vmc>
  Set drift_modifier UNR parameter a = 1.0000e+00
  EstimatorManagerBase::add replace LocalEnergy estimator.
  Set drift_modifier UNR parameter a = 1.0000e+00
  EstimatorManagerBase::add replace LocalEnergy estimator.
<optimization-report>
<vmc stage="main" blocks="500">
  Cannot make clones again. Use existing 1 clones
  Initial partition of walkers 0 1 
  Using Particle by Particle moves
  Walker moves without drift
  Total Sample Size   =512000
  Walker distribution on root = 0 1 
  Using Locality Approximation
===== Memory Usage after the buffer registration =====
Available memory on node 0, free + buffers : 52043 MB
Memory footprint by rank 0 on node 0       : 604 MB
==================================================
====================================================
  SimpleFixedNodeBranch::finalize after a VMC block
    QMC counter        = 7
    time step          = 0.15
    reference energy   = -3.70091
    reference variance = 0.0593155
====================================================
  Execution time = 3.4033e+00
</vmc>
<opt stage="setup">
  <log>
   Reading configurations from h5FileRoot Ge.log.s007
  QMCCostFunction is created with 1 threads.
  Using Nonlocal PP in Opt: NonLocalECP
   Number of samples loaded to each thread : 500 
  VMC Eavg = -3.6451e+00
  VMC Evar = 5.2387e-01
  Total weights = 5.1200e+05
  Execution time = 8.5158e-01
  </log>
</opt>
<opt stage="main" walkers="512000">
  <log>

*****************************************
Building overlap and Hamiltonian matrices
*****************************************

Among totally 82 optimized parameters, largest LM parameter change : 1.1401e-02 at parameter 25

******************************************************************************
Init Cost =  -3.4366e+00    New Cost =  -3.4356e+00  Delta Cost =   1.0009e-03
******************************************************************************

The new set of parameters is valid. Updating the trial wave function!

*****************************************************************************
Applying the update for shift_i =   1.0000e-02     and shift_s =   3.9062e-03
*****************************************************************************
  Execution time = 5.1937e+00
  </log>
  <optVariables href="Ge.log.s007.opt.xml">
   uu_0                 4.225713e-01 1 1  ON 0
   uu_1                 2.823178e-01 1 1  ON 1
   uu_2                 1.505011e-01 1 1  ON 2
   uu_3                 5.889456e-02 1 1  ON 3
   uu_4                -1.769828e-02 1 1  ON 4
   uu_5                -8.024314e-02 1 1  ON 5
   uu_6                -1.210314e-01 1 1  ON 6
   uu_7                -1.332437e-01 1 1  ON 7
   uu_8                -1.247108e-01 1 1  ON 8
   uu_9                -1.059075e-01 1 1  ON 9
   ud_0                 1.287594e+00 1 1  ON 10
   ud_1                 9.174142e-01 1 1  ON 11
   ud_2                 6.780572e-01 1 1  ON 12
   ud_3                 4.975945e-01 1 1  ON 13
   ud_4                 3.714794e-01 1 1  ON 14
   ud_5                 2.619906e-01 1 1  ON 15
   ud_6                 1.538441e-01 1 1  ON 16
   ud_7                 6.896171e-02 1 1  ON 17
   ud_8                 6.377599e-04 1 1  ON 18
   ud_9                -5.107857e-02 1 1  ON 19
  eGe_0                -5.523926e-01 1 1  ON 20
  eGe_1                -4.889266e-01 1 1  ON 21
  eGe_2                -4.871233e-01 1 1  ON 22
  eGe_3                -2.955162e-01 1 1  ON 23
  eGe_4                -3.583479e-02 1 1  ON 24
  eGe_5                 1.253653e-01 1 1  ON 25
  eGe_6                 2.628978e-01 1 1  ON 26
  eGe_7                 3.643029e-01 1 1  ON 27
  eGe_8                 3.756973e-01 1 1  ON 28
  eGe_9                 3.361470e-01 1 1  ON 29
 uuGe_0                 3.753998e-06 1 1  ON 30
 uuGe_1                 6.599152e-05 1 1  ON 31
 uuGe_2                 4.962978e-05 1 1  ON 32
 uuGe_3                -1.756794e-05 1 1  ON 33
 uuGe_4                -1.253633e-05 1 1  ON 34
 uuGe_5                -4.057229e-06 1 1  ON 35
 uuGe_6                 5.922843e-05 1 1  ON 36
 uuGe_7                 1.520812e-04 1 1  ON 37
 uuGe_8                 7.206793e-05 1 1  ON 38
 uuGe_9                -1.064871e-04 1 1  ON 39
uuGe_10                -1.016931e-05 1 1  ON 40
uuGe_11                -9.545877e-05 1 1  ON 41
uuGe_12                -5.664781e-06 1 1  ON 42
uuGe_13                 3.962815e-05 1 1  ON 43
uuGe_14                 1.642617e-05 1 1  ON 44
uuGe_15                -1.314768e-06 1 1  ON 45
uuGe_16                 8.825081e-05 1 1  ON 46
uuGe_17                 2.674699e-05 1 1  ON 47
uuGe_18                 3.367078e-05 1 1  ON 48
uuGe_19                -6.456292e-06 1 1  ON 49
uuGe_20                -2.423276e-05 1 1  ON 50
uuGe_21                -3.571624e-06 1 1  ON 51
uuGe_22                 1.530799e-06 1 1  ON 52
uuGe_23                 6.253708e-06 1 1  ON 53
uuGe_24                -3.084646e-08 1 1  ON 54
[...]
   uu_2                 1.913435e-01 1 1  ON 2
   uu_3                 8.633977e-02 1 1  ON 3
   uu_4                 5.420323e-04 1 1  ON 4
   uu_5                -6.505740e-02 1 1  ON 5
   uu_6                -1.025064e-01 1 1  ON 6
   uu_7                -1.136045e-01 1 1  ON 7
   uu_8                -1.057860e-01 1 1  ON 8
   uu_9                -9.049404e-02 1 1  ON 9
   ud_0                 1.358050e+00 1 1  ON 10
   ud_1                 9.871960e-01 1 1  ON 11
   ud_2                 7.477726e-01 1 1  ON 12
   ud_3                 5.668879e-01 1 1  ON 13
   ud_4                 4.418470e-01 1 1  ON 14
   ud_5                 3.316273e-01 1 1  ON 15
   ud_6                 2.206628e-01 1 1  ON 16
   ud_7                 1.264067e-01 1 1  ON 17
   ud_8                 4.907174e-02 1 1  ON 18
   ud_9                -6.464730e-03 1 1  ON 19
  eGe_0                -5.674685e-01 1 1  ON 20
  eGe_1                -5.648450e-01 1 1  ON 21
  eGe_2                -5.655670e-01 1 1  ON 22
  eGe_3                -3.704793e-01 1 1  ON 23
  eGe_4                -1.015922e-01 1 1  ON 24
  eGe_5                 7.118066e-02 1 1  ON 25
  eGe_6                 2.249169e-01 1 1  ON 26
  eGe_7                 3.420038e-01 1 1  ON 27
  eGe_8                 3.833378e-01 1 1  ON 28
  eGe_9                 3.768136e-01 1 1  ON 29
 uuGe_0                -7.891201e-06 1 1  ON 30
 uuGe_1                 7.850949e-05 1 1  ON 31
 uuGe_2                 6.698869e-05 1 1  ON 32
 uuGe_3                -2.260492e-05 1 1  ON 33
 uuGe_4                -1.618116e-05 1 1  ON 34
 uuGe_5                -6.627363e-06 1 1  ON 35
 uuGe_6                 8.227253e-05 1 1  ON 36
 uuGe_7                 1.680618e-04 1 1  ON 37
 uuGe_8                 8.819053e-05 1 1  ON 38
 uuGe_9                -1.134727e-04 1 1  ON 39
uuGe_10                -1.385810e-05 1 1  ON 40
uuGe_11                -1.057506e-04 1 1  ON 41
uuGe_12                -8.688032e-06 1 1  ON 42
uuGe_13                 4.194069e-05 1 1  ON 43
uuGe_14                 1.948757e-05 1 1  ON 44
uuGe_15                -1.369603e-06 1 1  ON 45
uuGe_16                 8.440742e-05 1 1  ON 46
uuGe_17                 3.583339e-05 1 1  ON 47
uuGe_18                 3.202473e-05 1 1  ON 48
uuGe_19                -5.754035e-06 1 1  ON 49
uuGe_20                -2.158310e-05 1 1  ON 50
uuGe_21                -3.380576e-06 1 1  ON 51
uuGe_22                 1.526086e-06 1 1  ON 52
uuGe_23                 4.386059e-06 1 1  ON 53
uuGe_24                -4.386145e-08 1 1  ON 54
uuGe_25                -2.750527e-07 1 1  ON 55
 udGe_0                -7.738199e-05 1 1  ON 56
 udGe_1                -2.161696e-04 1 1  ON 57
 udGe_2                -1.400171e-05 1 1  ON 58
 udGe_3                 3.304371e-04 1 1  ON 59
 udGe_4                 6.679265e-05 1 1  ON 60
 udGe_5                 1.906049e-05 1 1  ON 61
 udGe_6                 3.475155e-05 1 1  ON 62
 udGe_7                -6.549349e-05 1 1  ON 63
 udGe_8                -2.403533e-04 1 1  ON 64
 udGe_9                -7.948313e-06 1 1  ON 65
udGe_10                 2.072759e-04 1 1  ON 66
udGe_11                 1.466288e-05 1 1  ON 67
udGe_12                 7.431457e-05 1 1  ON 68
udGe_13                -3.436641e-04 1 1  ON 69
udGe_14                -7.886849e-05 1 1  ON 70
udGe_15                 8.571424e-07 1 1  ON 71
udGe_16                 2.910674e-04 1 1  ON 72
udGe_17                -4.587603e-04 1 1  ON 73
udGe_18                 1.048164e-04 1 1  ON 74
udGe_19                -2.908920e-05 1 1  ON 75
udGe_20                 5.046720e-05 1 1  ON 76
udGe_21                 6.732864e-07 1 1  ON 77
udGe_22                 1.097970e-06 1 1  ON 78
udGe_23                -7.163800e-06 1 1  ON 79
udGe_24                 7.484227e-07 1 1  ON 80
udGe_25                -6.731089e-08 1 1  ON 81
  </optVariables>
   Restore the number of walkers to 1, removing 0 walkers.
</opt>
</optimization-report>
  QMC Execution time = 5.262 secs

=========================================================
  Start VMC
  File Root Ge.log.s021 append = no 
=========================================================
  Using the current 1 walkers.
  Total number of walkers: 1024
  Total weight: 1024
  Resetting Properties of the walkers 1 x 13

<vmc function="put">
  qmc_counter=0  my_counter=0
  time step      = 0.15
  blocks         = 200
  steps          = 1
  substeps       = 30
  current        = 0
  target samples = 4096
  walkers/mpi    = 1

  stepsbetweensamples = 50
<parameter name="blocks" condition="int">200</parameter>
<parameter name="blocks_between_recompute" condition="int">0</parameter>
<parameter name="check_properties" condition="int">100</parameter>
<parameter name="checkproperties" condition="int">100</parameter>
<parameter name="current" condition="int">0</parameter>
<parameter name="dmcwalkersperthread" condition="real">4</parameter>
<parameter name="maxcpusecs" condition="real">3.6e+05</parameter>
<parameter name="record_configs" condition="int">0</parameter>
<parameter name="record_walkers" condition="int">50</parameter>
<parameter name="recordconfigs" condition="int">0</parameter>
<parameter name="recordwalkers" condition="int">50</parameter>
<parameter name="rewind" condition="int">0</parameter>
<parameter name="samples" condition="real">4096</parameter>
<parameter name="samplesperthread" condition="real">4</parameter>
<parameter name="steps" condition="int">1</parameter>
<parameter name="stepsbetweensamples" condition="int">50</parameter>
<parameter name="store_configs" condition="int">0</parameter>
<parameter name="storeconfigs" condition="int">0</parameter>
<parameter name="sub_steps" condition="int">30</parameter>
<parameter name="substeps" condition="int">30</parameter>
<parameter name="tau" condition="au">0.15</parameter>
<parameter name="time_step" condition="au">0.15</parameter>
<parameter name="timestep" condition="au">0.15</parameter>
<parameter name="use_drift" condition="string">no</parameter>
<parameter name="usedrift" condition="string">no</parameter>
<parameter name="walkers" condition="int">1</parameter>
<parameter name="warmup_steps" condition="int">100</parameter>
<parameter name="warmupsteps" condition="int">100</parameter>
  DumpConfig==true Configurations are dumped to config.h5 with a period of 200 blocks
  Walker Samples are dumped every 50 steps.
</vmc>
  Set drift_modifier UNR parameter a = 1
  EstimatorManagerBase::add replace LocalEnergy estimator.
  Cannot make clones again. Use existing 1 clones
  Initial partition of walkers 0 1 

  Using Particle by Particle moves
  Walker moves without drift
  Total Sample Size   =4096
  Walker distribution on root = 0 1 
  Using Locality Approximation
===== Memory Usage after the buffer registration =====
Available memory on node 0, free + buffers : 51980 MB
Memory footprint by rank 0 on node 0       : 648 MB
==================================================
  Anonymous Buffer size per walker : 1440 Bytes.
MEMORY increase 0 MB VMC::resetRun
  samples are written to the config.h5
====================================================
  SimpleFixedNodeBranch::finalize after a VMC block
    QMC counter        = 21
    time step          = 0.15
    reference energy   = -3.70656
    reference variance = 0.0658585
====================================================
  QMC Execution time = 2.511 secs

=========================================================
  Start DMC
  File Root Ge.log.s022 append = no 
=========================================================
Using existing walkers 
  Resetting Properties of the walkers 1 x 13
  Set drift_modifier UNR parameter a = 1
  EstimatorManagerBase::add replace LocalEnergy estimator.
  Cannot make clones again. Use existing 1 clones
  Total number of walkers: 4096
  Total weight: 4096
  Creating WalkerController: target  number of walkers = 4096
  Using WalkerControlMPI for dynamic population control.
  START ALL OVER 
  WalkerControlBase parameters 
    maxCopy = 2
    Max Walkers per MPI rank 9
    Min Walkers per MPI rank 1
    Using non-blocking send/recv
  QMC counter      = 22
  time step        = 0.02
  effective time step = 0.02
  trial energy     = -3.707
  reference energy = -3.707
  Feedback = 1
  reference variance = 0.06586
  target walkers = 4096
  branching cutoff scheme classic
  branch cutoff = 50 75
  Max and minimum walkers per node= 9 1
  QMC Status (BranchMode) = 0000001101
  Initial partition of walkers on a node: 0 4 
  Updates by particle-by-particle moves
  DMC moves are rejected when a node crossing is detected
  Using Non-local T-moves v1, M. Casula et al., JCP 132, 154113 (2010)
===== Memory Usage after the buffer registration =====
Available memory on node 0, free + buffers : 51920 MB
Memory footprint by rank 0 on node 0       : 660 MB
==================================================
SimpleFixedNodeBranch::checkParameters 
  Average Energy of a population  = -3.71075
  Energy Variance = 0.0778013

  Fluctuating population
  Persistent walkers are killed after 1 MC sweeps
  BranchInterval = 1
  Steps per block = 50
  Number of blocks = 150

  DMC Engine Initialization = 0.03756 secs

 Warmup is completed after 200

  TauEff     = 0.01993
 TauEff/Tau = 0.9965
  Etrial     = -3.727
 Running average of energy = -3.735
                  Variance = 0.09961
branch cutoff = 10 15
====================================================
  SimpleFixedNodeBranch::finalize after a DMC block
    QMC counter                   = 22
    time step                     = 0.02
    effective time step           = 0.0199313
    trial energy                  = -3.74129
    reference energy              = -3.74203
    reference variance            = 0.0996078
    target walkers                = 4096
    branch cutoff                 = 10 15
    Max and minimum walkers per node= 9 1
    Feedback                      = 1
    QMC Status (BranchMode)       = 0000001111
====================================================
  QMC Execution time = 184.3 secs
  Reusing DMC
BRANCH resetRun
 SimpleFixedNodeBranch::resetRun detected changes in <parameter>'s 
 BranchMode : 0000001111 0000001111
  WalkerControlBase parameters 
    maxCopy = 2
    Max Walkers per MPI rank 9
    Min Walkers per MPI rank 1
    Using non-blocking send/recv
 iParam (old):                  0                 1                22              4096                 9                 1                 1                 0
 iParam (new):                100                 1                22              4096                 9                 1                 1                 0
 vParam (old):               0.02     0.01993131013       -3.74129428       -3.74202697      -3.741445102                15                10               0.2     0.09960784647      -27320.53833              7301                 1                10                 1                 1                 1                 1
 vParam (new):               0.01     0.01993131013       -3.74129428       -3.74202697      -3.741445102                15                10               0.2     0.09960784647      -27320.53833              7301                 1                10                 1                 1                 1                 1

 Using branching cutoff scheme classic
SimpleFixedNodeBranch::checkParameters 
  Average Energy of a population  = -3.74084
  Energy Variance = 0.10872

  Using Non-local T-moves v1, M. Casula et al., JCP 132, 154113 (2010)
===== Memory Usage after the buffer registration =====
Available memory on node 0, free + buffers : 51926 MB
Memory footprint by rank 0 on node 0       : 665 MB
==================================================

=========================================================
  Start DMC
  File Root Ge.log.s023 append = no 
=========================================================
Using existing walkers 
  Resetting Properties of the walkers 1 x 13
  Set drift_modifier UNR parameter a = 1
  EstimatorManagerBase::add replace LocalEnergy estimator.
  Cannot make clones again. Use existing 1 clones
SimpleFixedNodeBranch::checkParameters 
  Average Energy of a population  = -3.7407
  Energy Variance = 0.108598

  Fluctuating population
  Persistent walkers are killed after 1 MC sweeps
  BranchInterval = 1
  Steps per block = 100
  Number of blocks = 200

  DMC Engine Initialization = 0.0006790161133 secs

 Warmup is completed after 100

  TauEff     = 0.009987449596
 TauEff/Tau = 0.9987449596
  Etrial     = -3.688714055
 Running average of energy = -3.740390045
                  Variance = 0.104771621
branch cutoff = 10 15
====================================================
  SimpleFixedNodeBranch::finalize after a DMC block
    QMC counter                   = 23
    time step                     = 0.01
    effective time step           = 0.00998737
    trial energy                  = -3.74477
    reference energy              = -3.74209
    reference variance            = 0.104772
    target walkers                = 4096
    branch cutoff                 = 10 15
    Max and minimum walkers per node= 9 1
    Feedback                      = 1
    QMC Status (BranchMode)       = 0000001111
====================================================
  QMC Execution time = 485 secs
  Reusing DMC
BRANCH resetRun
 SimpleFixedNodeBranch::resetRun detected changes in <parameter>'s 
 BranchMode : 0000001111 0000001111
  WalkerControlBase parameters 
    maxCopy = 2
    Max Walkers per MPI rank 9
    Min Walkers per MPI rank 1
    Using non-blocking send/recv
 iParam (old):                  0                 1                23              4096                 9                 1                 1                 0
 iParam (new):                200                 1                23              4096                 9                 1                 1                 0
 vParam (old):               0.01    0.009987365064      -3.744773556      -3.742091609      -3.740288162                15                10               0.2       0.104771621      -74471.36331             19901                 1                10                 1                 1                 1                 1
 vParam (new):              0.005    0.009987365064      -3.744773556      -3.742091609      -3.740288162                15                10               0.2       0.104771621      -74471.36331             19901                 1                10                 1                 1                 1                 1

 Using branching cutoff scheme classic
SimpleFixedNodeBranch::checkParameters 
  Average Energy of a population  = -3.74181
  Energy Variance = 0.111736

  Using Non-local T-moves v1, M. Casula et al., JCP 132, 154113 (2010)
===== Memory Usage after the buffer registration =====
Available memory on node 0, free + buffers : 51918 MB
Memory footprint by rank 0 on node 0       : 668 MB
==================================================

=========================================================
  Start DMC
  File Root Ge.log.s024 append = no 
=========================================================
Using existing walkers 
  Resetting Properties of the walkers 1 x 13
  Set drift_modifier UNR parameter a = 1
  EstimatorManagerBase::add replace LocalEnergy estimator.
  Cannot make clones again. Use existing 1 clones
SimpleFixedNodeBranch::checkParameters 
  Average Energy of a population  = -3.74216
  Energy Variance = 0.111756

  Fluctuating population
  Persistent walkers are killed after 1 MC sweeps
  BranchInterval = 1
  Steps per block = 200
  Number of blocks = 250

  DMC Engine Initialization = 0.0003161430359 secs

 Warmup is completed after 200

  TauEff     = 0.004997837435
 TauEff/Tau = 0.9995674869
  Etrial     = -3.885483905
 Running average of energy = -3.739419747
                  Variance = 0.1045789077
branch cutoff = 10 15
====================================================
  SimpleFixedNodeBranch::finalize after a DMC block
    QMC counter                   = 24
    time step                     = 0.005
    effective time step           = 0.00499772
    trial energy                  = -3.73131
    reference energy              = -3.74211
    reference variance            = 0.104579
    target walkers                = 4096
    branch cutoff                 = 10 15
    Max and minimum walkers per node= 9 1
    Feedback                      = 1
    QMC Status (BranchMode)       = 0000001111
====================================================
  QMC Execution time = 1212 secs
  Reusing DMC
BRANCH resetRun
 SimpleFixedNodeBranch::resetRun detected changes in <parameter>'s 
 BranchMode : 0000001111 0000001111
  WalkerControlBase parameters 
    maxCopy = 2
    Max Walkers per MPI rank 9
    Min Walkers per MPI rank 1
    Using non-blocking send/recv
 iParam (old):                  0                 1                24              4096                 9                 1                 1                 0
 iParam (new):                400                 1                24              4096                 9                 1                 1                 0
 vParam (old):              0.005    0.004997716238      -3.731309014      -3.742109315      -3.742789801                15                10               0.2      0.1045789077      -186360.7867             49801                 1                10                 1                 1                 1                 1
 vParam (new):             0.0025    0.004997716238      -3.731309014      -3.742109315      -3.742789801                15                10               0.2      0.1045789077      -186360.7867             49801                 1                10                 1                 1                 1                 1

 Using branching cutoff scheme classic
SimpleFixedNodeBranch::checkParameters 
  Average Energy of a population  = -3.74237
  Energy Variance = 0.10984

  Using Non-local T-moves v1, M. Casula et al., JCP 132, 154113 (2010)
===== Memory Usage after the buffer registration =====
Available memory on node 0, free + buffers : 51871 MB
Memory footprint by rank 0 on node 0       : 671 MB
==================================================

=========================================================
  Start DMC
  File Root Ge.log.s025 append = no 
=========================================================
Using existing walkers 
  Resetting Properties of the walkers 1 x 13
  Set drift_modifier UNR parameter a = 1
  EstimatorManagerBase::add replace LocalEnergy estimator.
  Cannot make clones again. Use existing 1 clones
SimpleFixedNodeBranch::checkParameters 
  Average Energy of a population  = -3.74229
  Energy Variance = 0.109812

  Fluctuating population
  Persistent walkers are killed after 1 MC sweeps
  BranchInterval = 1
  Steps per block = 400
  Number of blocks = 300

  DMC Engine Initialization = 0.0007989406586 secs

 Warmup is completed after 400

  TauEff     = 0.002499605313
 TauEff/Tau = 0.9998421251
  Etrial     = -3.641960179
 Running average of energy = -3.738364312
                  Variance = 0.1006463753
branch cutoff = 10 15
====================================================
  SimpleFixedNodeBranch::finalize after a DMC block
    QMC counter                   = 25
    time step                     = 0.0025
    effective time step           = 0.00249959
    trial energy                  = -3.73729
    reference energy              = -3.74293
    reference variance            = 0.100646
    target walkers                = 4096
    branch cutoff                 = 10 15
    Max and minimum walkers per node= 9 1
    Feedback                      = 1
    QMC Status (BranchMode)       = 0000001111
====================================================
  QMC Execution time = 2891 secs
  Total Execution time = 4882 secs

=========================================================
  A new xml input file : Ge.log.s025.cont.xml
TACC:  Shutdown complete. Exiting. 
