----- GAMESS execution script 'rungms' -----
This job is running on host c412-082.stampede2.tacc.utexas.edu
under operating system Linux at Fri Sep 28 23:11:14 CDT 2018
Available scratch disk space (Kbyte units) at beginning of the job is
Filesystem               1K-blocks  Used Available Use% Mounted on
/dev/mapper/rootvg01-tmp 111414116 43116 111371000   1% /tmp
GAMESS temporary binary files will be written to /tmp
GAMESS supplementary output files will be written to /work/04843/aannabe/stampede2/docs/totals/Si/QZ
Copying input file Si.inp to your run's scratch directory...

 Distributed Data Interface kickoff program.
 Initiating 1 compute processes on 1 nodes to run the following command:
 /work/04843/aannabe/stampede2/codes/gamess-mcb/gamess/gamess.00.x Si 

          ******************************************************
          *         GAMESS VERSION =  1 MAY 2013 (R1)          *
          *             FROM IOWA STATE UNIVERSITY             *
          * M.W.SCHMIDT, K.K.BALDRIDGE, J.A.BOATZ, S.T.ELBERT, *
          *   M.S.GORDON, J.H.JENSEN, S.KOSEKI, N.MATSUNAGA,   *
          *          K.A.NGUYEN, S.J.SU, T.L.WINDUS,           *
          *       TOGETHER WITH M.DUPUIS, J.A.MONTGOMERY       *
          *         J.COMPUT.CHEM.  14, 1347-1363(1993)        *
          **************** 64 BIT INTEL VERSION ****************

  SINCE 1993, STUDENTS AND POSTDOCS WORKING AT IOWA STATE UNIVERSITY
  AND ALSO IN THEIR VARIOUS JOBS AFTER LEAVING ISU HAVE MADE IMPORTANT
  CONTRIBUTIONS TO THE CODE:
     IVANA ADAMOVIC, CHRISTINE AIKENS, YURI ALEXEEV, POOJA ARORA,
     ANDREY ASADCHEV, ROB BELL, PRADIPTA BANDYOPADHYAY, JONATHAN BENTZ,
     BRETT BODE, GALINA CHABAN, WEI CHEN, CHEOL HO CHOI, PAUL DAY,
     ALBERT DEFUSCO, TIM DUDLEY, DMITRI FEDOROV, GRAHAM FLETCHER,
     MARK FREITAG, KURT GLAESEMANN, DAN KEMP, GRANT MERRILL,
     NORIYUKI MINEZAWA, JONATHAN MULLIN, TAKESHI NAGATA,
     SEAN NEDD, HEATHER NETZLOFF, BOSILJKA NJEGIC, RYAN OLSON, MIKE PAK,
     JIM SHOEMAKER, LYUDMILA SLIPCHENKO, SAROM SOK, JIE SONG,
     TETSUYA TAKETSUGU, SIMON WEBB, SOOHAENG YOO, FEDERICO ZAHARIEV

  ADDITIONAL CODE HAS BEEN PROVIDED BY COLLABORATORS IN OTHER GROUPS:
     IOWA STATE UNIVERSITY:
          JOE IVANIC, LAIMUTIS BYTAUTAS, KLAUS RUEDENBERG
     UNIVERSITY OF TOKYO: KIMIHIKO HIRAO, TAKAHITO NAKAJIMA,
          TAKAO TSUNEDA, MUNEAKI KAMIYA, SUSUMU YANAGISAWA,
          KIYOSHI YAGI, MAHITO CHIBA, SEIKEN TOKURA, NAOAKI KAWAKAMI
     UNIVERSITY OF AARHUS: FRANK JENSEN
     UNIVERSITY OF IOWA: VISVALDAS KAIRYS, HUI LI
     NATIONAL INST. OF STANDARDS AND TECHNOLOGY: WALT STEVENS, DAVID GARMER
     UNIVERSITY OF PISA: BENEDETTA MENNUCCI, JACOPO TOMASI
     UNIVERSITY OF MEMPHIS: HENRY KURTZ, PRAKASHAN KORAMBATH
     UNIVERSITY OF ALBERTA: TOBY ZENG, MARIUSZ KLOBUKOWSKI
     UNIVERSITY OF NEW ENGLAND: MARK SPACKMAN
     MIE UNIVERSITY: HIROAKI UMEDA
     MICHIGAN STATE UNIVERSITY:
          KAROL KOWALSKI, MARTA WLOCH, JEFFREY GOUR, JESSE LUTZ,
          WEI LI, PIOTR PIECUCH
     UNIVERSITY OF SILESIA: MONIKA MUSIAL, STANISLAW KUCHARSKI
     FACULTES UNIVERSITAIRES NOTRE-DAME DE LA PAIX:
          OLIVIER QUINET, BENOIT CHAMPAGNE
     UNIVERSITY OF CALIFORNIA - SANTA BARBARA: BERNARD KIRTMAN
     INSTITUTE FOR MOLECULAR SCIENCE:
          KAZUYA ISHIMURA, MICHIO KATOUDA, AND SHIGERU NAGASE
     UNIVERSITY OF NOTRE DAME: DAN CHIPMAN
     KYUSHU UNIVERSITY:
          HARUYUKI NAKANO,
          FENG LONG GU, JACEK KORCHOWIEC, MARCIN MAKOWSKI, AND YURIKO AOKI,
          HIROTOSHI MORI AND EISAKU MIYOSHI
     PENNSYLVANIA STATE UNIVERSITY:
          TZVETELIN IORDANOV, CHET SWALINA, JONATHAN SKONE,
          SHARON HAMMES-SCHIFFER
     WASEDA UNIVERSITY:
          MASATO KOBAYASHI, TOMOKO AKAMA, TSUGUKI TOUMA,
          TAKESHI YOSHIKAWA, YASUHIRO IKABATA, HIROMI NAKAI
     NANJING UNIVERSITY: SHUHUA LI
     UNIVERSITY OF NEBRASKA:
          PEIFENG SU, DEJUN SI, NANDUN THELLAMUREGE, YALI WANG, HUI LI
     UNIVERSITY OF ZURICH:
          ROBERTO PEVERATI, KIM BALDRIDGE
     N. COPERNICUS UNIVERSITY AND JACKSON STATE UNIVERSITY:
          MARIA BARYSZ

 EXECUTION OF GAMESS BEGUN Fri Sep 28 23:11:15 2018

            ECHO OF THE FIRST FEW INPUT CARDS -
 INPUT CARD> $CONTRL                                                                        
 INPUT CARD>     SCFTYP=ROHF                                                                
 INPUT CARD>     MULT=3                                                                     
 INPUT CARD>     ICHARG=0                                                                   
 INPUT CARD>     RUNTYP=ENERGY                                                              
 INPUT CARD>     MAXIT=150                                                                  
 INPUT CARD>     ECP=READ                                                                   
 INPUT CARD>     ISPHER=1                                                                   
 INPUT CARD> $END                                                                           
 INPUT CARD>                                                                                
 INPUT CARD> $SYSTEM                                                                        
 INPUT CARD>     KDIAG=3                                                                    
 INPUT CARD> $END                                                                           
 INPUT CARD>                                                                                
 INPUT CARD> $GUESS                                                                         
 INPUT CARD>    GUESS=HUCKEL                                                                
 INPUT CARD> $END                                                                           
 INPUT CARD>                                                                                
 INPUT CARD>                                                                                
 INPUT CARD> $DATA                                                                          
 INPUT CARD>                                                                                
 INPUT CARD>C1                                                                              
 INPUT CARD>Si 14    0. 0. 0.                                                               
 INPUT CARD>S  10                                                                           
 INPUT CARD>  1  9.998274  0.002894                                                         
 INPUT CARD>  2  5.517644 -0.014523                                                         
 INPUT CARD>  3  3.044965  0.077634                                                         
 INPUT CARD>  4  1.680393 -0.224022                                                         
 INPUT CARD>  5  0.927341 -0.149080                                                         
 INPUT CARD>  6  0.511762  0.085944                                                         
 INPUT CARD>  7  0.282421  0.355394                                                         
 INPUT CARD>  8  0.155857  0.445219                                                         
 INPUT CARD>  9  0.086011  0.267230                                                         
 INPUT CARD> 10  0.047466  0.060787                                                         
 INPUT CARD>S   1                                                                           
 INPUT CARD>  1  0.488504  1.000000                                                         
 INPUT CARD>S   1                                                                           
 INPUT CARD>  1  0.199457  1.000000                                                         
 INPUT CARD>S   1                                                                           
 INPUT CARD>  1  0.081439  1.000000                                                         
 INPUT CARD>P  10                                                                           
 INPUT CARD>  1  5.027868 -0.003242                                                         
 INPUT CARD>  2  2.867751  0.010649                                                         
 INPUT CARD>  3  1.635683 -0.049761                                                         
 INPUT CARD>  4  0.932947 -0.000017                                                         
 INPUT CARD>  5  0.532126  0.106060                                                         
 INPUT CARD>  6  0.303509  0.236202                                                         
 INPUT CARD>  7  0.173113  0.310665                                                         
 INPUT CARD>  8  0.098739  0.294696                                                         
 INPUT CARD>  9  0.056318  0.153898                                                         
    1000000 WORDS OF MEMORY AVAILABLE


     RUN TITLE
     ---------
                                                                                 

 THE POINT GROUP OF THE MOLECULE IS C1      
 THE ORDER OF THE PRINCIPAL AXIS IS     0
 *** WARNING! ATOM   1 SHELL    5 TYPE P HAS NORMALIZATION   0.99999860

 ATOM      ATOMIC                      COORDINATES (BOHR)
           CHARGE         X                   Y                   Z
 SI         14.0     0.0000000000        0.0000000000        0.0000000000

          INTERNUCLEAR DISTANCES (ANGS.)
          ------------------------------

                1 SI    

   1 SI      0.0000000  

  * ... LESS THAN  3.000


     ATOMIC BASIS SET
     ----------------
 THE CONTRACTED PRIMITIVE FUNCTIONS HAVE BEEN UNNORMALIZED
 THE CONTRACTED BASIS FUNCTIONS ARE NOW NORMALIZED TO UNITY

  SHELL TYPE  PRIMITIVE        EXPONENT          CONTRACTION COEFFICIENT(S)

 SI        

      1   S       1             9.9982740    0.002893997896
      1   S       2             5.5176440   -0.014522989441
      1   S       3             3.0449650    0.077633943557
      1   S       4             1.6803930   -0.224021837126
      1   S       5             0.9273410   -0.149079891612
      1   S       6             0.5117620    0.085943937515
      1   S       7             0.2824210    0.355393741613
      1   S       8             0.1558570    0.445218676307
      1   S       9             0.0860110    0.267229805712
      1   S      10             0.0474660    0.060786955805

      2   S      11             0.4885040    1.000000000000

      3   S      12             0.1994570    1.000000000000

      4   S      13             0.0814390    1.000000000000

      5   P      14             5.0278680   -0.003241995466
      5   P      15             2.8677510    0.010648985106
      5   P      16             1.6356830   -0.049760930401
      5   P      17             0.9329470   -0.000016999976
      5   P      18             0.5321260    0.106059851657
      5   P      19             0.3035090    0.236201669632
      5   P      20             0.1731130    0.310664565483
      5   P      21             0.0987390    0.294695587818
      5   P      22             0.0563180    0.153897784748
      5   P      23             0.0321220    0.042336940785

      6   P      24             1.2257900    1.000000000000

      7   P      25             0.5013640    1.000000000000

      8   P      26             0.2050640    1.000000000000

      9   D      27             0.9970030    1.000000000000

     10   D      28             0.3659420    1.000000000000

     11   D      29             0.1343160    1.000000000000

     12   F      30             0.5491160    1.000000000000

     13   F      31             0.2149980    1.000000000000

     14   G      32             0.4595470    1.000000000000

 TOTAL NUMBER OF BASIS SET SHELLS             =   14
 NUMBER OF CARTESIAN GAUSSIAN BASIS FUNCTIONS =   69
 NOTE: THIS RUN WILL RESTRICT THE MO VARIATION SPACE TO SPHERICAL HARMONICS.
 THE NUMBER OF ORBITALS KEPT IN THE VARIATIONAL SPACE WILL BE PRINTED LATER.
 NUMBER OF ELECTRONS                          =   14
 CHARGE OF MOLECULE                           =    0
 SPIN MULTIPLICITY                            =    3
 NUMBER OF OCCUPIED ORBITALS (ALPHA)          =    8
 NUMBER OF OCCUPIED ORBITALS (BETA )          =    6
 TOTAL NUMBER OF ATOMS                        =    1
 THE NUCLEAR REPULSION ENERGY IS        0.0000000000
 NOTE THIS RUN IS USING CORE POTENTIALS, AND THE NUMBER OF ELECTRONS,
 OCCUPIED ORBITALS, AND NUCLEAR REPULSION ENERGY WILL BE ADJUSTED BELOW
 AFTER REMOVAL OF THE CORE CHARGES.

 THIS MOLECULE IS RECOGNIZED AS BEING LINEAR,
 ORBITAL LZ DEGENERACY TOLERANCE ETOLLZ= 1.00E-06

     $CONTRL OPTIONS
     ---------------
 SCFTYP=ROHF         RUNTYP=ENERGY       EXETYP=RUN     
 MPLEVL=       0     CITYP =NONE         CCTYP =NONE         VBTYP =NONE    
 DFTTYP=NONE         TDDFT =NONE    
 MULT  =       3     ICHARG=       0     NZVAR =       0     COORD =UNIQUE  
 PP    =READ         RELWFN=NONE         LOCAL =NONE         NUMGRD=       F
 ISPHER=       1     NOSYM =       0     MAXIT =     150     UNITS =ANGS    
 PLTORB=       F     MOLPLT=       F     AIMPAC=       F     FRIEND=        
 NPRINT=       7     IREST =       0     GEOM  =INPUT   
 NORMF =       0     NORMP =       0     ITOL  =      20     ICUT  =       9
 INTTYP=BEST         GRDTYP=BEST         QMTTOL= 1.0E-06

     $SYSTEM OPTIONS
     ---------------
  REPLICATED MEMORY=     1000000 WORDS (ON EVERY NODE).
 DISTRIBUTED MEMDDI=           0 MILLION WORDS IN AGGREGATE,
 MEMDDI DISTRIBUTED OVER   1 PROCESSORS IS           0 WORDS/PROCESSOR.
 TOTAL MEMORY REQUESTED ON EACH PROCESSOR=     1000000 WORDS.
 TIMLIM=      525600.00 MINUTES, OR     365.0 DAYS.
 PARALL= F  BALTYP=  DLB     KDIAG=    3  COREFL= F
 MXSEQ2=     300 MXSEQ3=     150

          --------------
          ECP POTENTIALS
          --------------

 PARAMETERS FOR "SI-CCECP" ON ATOM    1 WITH ZCORE  10 AND LMAX  2 ARE
 FOR L= 2      COEFF    N           ZETA
    1        4.00000    1        5.16832
    2       20.67326    3        8.86169
    3      -14.81817    2        3.93347
 FOR L= 0      COEFF    N           ZETA
    1       14.83276    2        9.44702
    2       26.34966    2        2.55381
 FOR L= 1      COEFF    N           ZETA
    1        7.62140    2        3.66000
    2       10.33158    2        1.90365

 THE ECP RUN REMOVES   10 CORE ELECTRONS, AND THE SAME NUMBER OF PROTONS.
 NUMBER OF ELECTRONS KEPT IN THE CALCULATION IS =    4
 NUMBER OF OCCUPIED ORBITALS (ALPHA) KEPT IS    =    3
 NUMBER OF OCCUPIED ORBITALS (BETA ) KEPT IS    =    1
 THE ADJUSTED NUCLEAR REPULSION ENERGY=        0.0000000000
          ECP ANGULAR INTS.........     0.08 SECONDS

          ----------------
          PROPERTIES INPUT
          ----------------

     MOMENTS            FIELD           POTENTIAL          DENSITY
 IEMOM =       1   IEFLD =       0   IEPOT =       0   IEDEN =       0
 WHERE =COMASS     WHERE =NUCLEI     WHERE =NUCLEI     WHERE =NUCLEI  
 OUTPUT=BOTH       OUTPUT=BOTH       OUTPUT=BOTH       OUTPUT=BOTH    
 IEMINT=       0   IEFINT=       0                     IEDINT=       0
                                                       MORB  =       0
          EXTRAPOLATION IN EFFECT
          SOSCF IN EFFECT
 ORBITAL PRINTING OPTION: NPREO=     1    69     2     1

     -------------------------------
     INTEGRAL TRANSFORMATION OPTIONS
     -------------------------------
     NWORD  =            0
     CUTOFF = 1.0E-09     MPTRAN =       0
     DIRTRF =       F     AOINTS =DUP     

          ----------------------
          INTEGRAL INPUT OPTIONS
          ----------------------
 NOPK  =       1 NORDER=       0 SCHWRZ=       F

     ------------------------------------------
     THE POINT GROUP IS C1 , NAXIS= 0, ORDER= 1
     ------------------------------------------

 -- VARIATIONAL SPACE WILL BE RESTRICTED TO PURE SPHERICAL HARMONICS ONLY --
 AFTER EXCLUDING CONTAMINANT COMBINATIONS FROM THE CARTESIAN GAUSSIAN BASIS
 SET, THE NUMBER OF SPHERICAL HARMONICS KEPT IN THE VARIATION SPACE IS   54

     DIMENSIONS OF THE SYMMETRY SUBSPACES ARE
 A   =   54

 ..... DONE SETTING UP THE RUN .....
 STEP CPU TIME =     0.20 TOTAL CPU TIME =        0.2 (    0.0 MIN)
 TOTAL WALL CLOCK TIME=        0.5 SECONDS, CPU UTILIZATION IS  42.00%

          ********************
          1 ELECTRON INTEGRALS
          ********************
 TIME TO DO ORDINARY INTEGRALS=      0.00
 TIME TO DO      ECP INTEGRALS=      0.01
 ...... END OF ONE-ELECTRON INTEGRALS ......
 STEP CPU TIME =     0.01 TOTAL CPU TIME =        0.2 (    0.0 MIN)
 TOTAL WALL CLOCK TIME=        0.7 SECONDS, CPU UTILIZATION IS  32.84%

          -------------
          GUESS OPTIONS
          -------------
          GUESS =HUCKEL            NORB  =       0          NORDER=       0
          MIX   =       F          PRTMO =       F          PUNMO =       F
          TOLZ  = 1.0E-08          TOLE  = 1.0E-05
          SYMDEN=       F          PURIFY=       F

 INITIAL GUESS ORBITALS GENERATED BY HUCKEL   ROUTINE.
 HUCKEL GUESS REQUIRES     35281 WORDS.

 STATISTICS FOR GENERATION OF SYMMETRY ORBITAL -Q- MATRIX
 NUMBER OF CARTESIAN ATOMIC ORBITALS=         69
 NUMBER OF SPHERICAL CONTAMINANTS DROPPED=    15
 NUMBER OF LINEARLY DEPENDENT MOS DROPPED=     0
 TOTAL NUMBER OF MOS IN VARIATION SPACE=      54

 SYMMETRIES FOR INITIAL GUESS ORBITALS FOLLOW.  ALPHA SET(S).
     3 ORBITALS ARE OCCUPIED (    0 CORE ORBITALS).
     1=A        2=A        3=A        4=A        5=A        6=A        7=A   
     8=A        9=A       10=A       11=A       12=A       13=A   

 SYMMETRIES FOR INITIAL GUESS ORBITALS FOLLOW.   BETA SET(S).
     1 ORBITALS ARE OCCUPIED (    0 CORE ORBITALS).
     1=A        2=A        3=A        4=A        5=A        6=A        7=A   
     8=A        9=A       10=A       11=A   
 ...... END OF INITIAL ORBITAL SELECTION ......
 STEP CPU TIME =     0.03 TOTAL CPU TIME =        0.3 (    0.0 MIN)
 TOTAL WALL CLOCK TIME=        0.8 SECONDS, CPU UTILIZATION IS  31.65%

                    ----------------------
                    AO INTEGRAL TECHNOLOGY
                    ----------------------
     S,P,L SHELL ROTATED AXIS INTEGRALS, REPROGRAMMED BY
        KAZUYA ISHIMURA (IMS) AND JOSE SIERRA (SYNSTAR).
     S,P,D,L SHELL ROTATED AXIS INTEGRALS PROGRAMMED BY
        KAZUYA ISHIMURA (INSTITUTE FOR MOLECULAR SCIENCE).
     S,P,D,F,G SHELL TO TOTAL QUARTET ANGULAR MOMENTUM SUM 5,
        ERIC PROGRAM BY GRAHAM FLETCHER (ELORET AND NASA ADVANCED
        SUPERCOMPUTING DIVISION, AMES RESEARCH CENTER).
     S,P,D,F,G,L SHELL GENERAL RYS QUADRATURE PROGRAMMED BY
        MICHEL DUPUIS (PACIFIC NORTHWEST NATIONAL LABORATORY).

          --------------------
          2 ELECTRON INTEGRALS
          --------------------

 THE -PK- OPTION IS OFF, THE INTEGRALS ARE NOT IN SUPERMATRIX FORM.
 STORING   15000 INTEGRALS/RECORD ON DISK, USING 12 BYTES/INTEGRAL.
 TWO ELECTRON INTEGRAL EVALUATION REQUIRES  139830 WORDS OF MEMORY.
 II,JST,KST,LST =  1  1  1  1 NREC =         1 INTLOC =    1
 II,JST,KST,LST =  2  1  1  1 NREC =         1 INTLOC =    2
 II,JST,KST,LST =  3  1  1  1 NREC =         1 INTLOC =    7
 II,JST,KST,LST =  4  1  1  1 NREC =         1 INTLOC =   22
 II,JST,KST,LST =  5  1  1  1 NREC =         1 INTLOC =   56
 II,JST,KST,LST =  6  1  1  1 NREC =         1 INTLOC =  125
 II,JST,KST,LST =  7  1  1  1 NREC =         1 INTLOC =  329
 II,JST,KST,LST =  8  1  1  1 NREC =         1 INTLOC =  776
 II,JST,KST,LST =  9  1  1  1 NREC =         1 INTLOC = 1637
 II,JST,KST,LST = 10  1  1  1 NREC =         1 INTLOC = 4868
 II,JST,KST,LST = 11  1  1  1 NREC =         1 INTLOC =12014
 II,JST,KST,LST = 12  1  1  1 NREC =         2 INTLOC =10415
 II,JST,KST,LST = 13  1  1  1 NREC =         5 INTLOC = 6170
 II,JST,KST,LST = 14  1  1  1 NREC =        10 INTLOC =10796
 TOTAL NUMBER OF NONZERO TWO-ELECTRON INTEGRALS =              378466
         26 INTEGRAL RECORDS WERE STORED ON DISK FILE  8.
  ...... END OF TWO-ELECTRON INTEGRALS .....
 STEP CPU TIME =     0.63 TOTAL CPU TIME =        0.9 (    0.0 MIN)
 TOTAL WALL CLOCK TIME=        1.5 SECONDS, CPU UTILIZATION IS  58.28%

          ---------------------------
                 ROHF SCF CALCULATION
          ---------------------------

     NUCLEAR ENERGY =         0.0000000000
     MAXIT =150     NPUNCH=  2     MULT=  3
     EXTRAP=T  DAMP=F  SHIFT=F  RSTRCT=F  DIIS=F  SOSCF=T
     DENSITY MATRIX CONV=  1.00E-05
     ROHF CANONICALIZATION PARAMETERS
             C-C     O-O     V-V
     ALPHA -0.5000  0.5000  1.5000
     BETA   1.5000  0.5000 -0.5000
     SOSCF WILL OPTIMIZE     155 ORBITAL ROTATION ANGLES. SOGTOL= 2.500E-01
     MEMORY REQUIRED FOR UHF/ROHF ITERS=     74710 WORDS.

 ITER EX      TOTAL ENERGY        E CHANGE  DENSITY CHANGE    ORB. GRAD 
   1  0       -3.6704969453    -3.6704969453   0.140927661   0.000000000
          ---------------START SECOND ORDER SCF---------------
   2  1       -3.6725337662    -0.0020368208   0.021099192   0.002765047
   3  2       -3.6725468628    -0.0000130966   0.004155650   0.000257461
   4  3       -3.6725472434    -0.0000003806   0.000236992   0.000105689
   5  4       -3.6725472498    -0.0000000064   0.000025905   0.000002872
   6  5       -3.6725472499    -0.0000000000   0.000001925   0.000000135
   7  6       -3.6725472499    -0.0000000000   0.000000231   0.000000015

          -----------------
          DENSITY CONVERGED
          -----------------
     TIME TO FORM FOCK OPERATORS=       0.1 SECONDS (       0.0 SEC/ITER)
     TIME TO SOLVE SCF EQUATIONS=       0.0 SECONDS (       0.0 SEC/ITER)

 FINAL ROHF ENERGY IS       -3.6725472499 AFTER   7 ITERATIONS

          --------------------
          SPIN SZ   =    1.000
          S-SQUARED =    2.000
          --------------------

 LZ VALUE ANALYSIS FOR THE MOS
 ----------------------------------------
 MO     1 (    1) HAS LZ(WEIGHT)= 0.00(100.0%) 
 MO     2 (    2) HAS LZ(WEIGHT)=-1.00( 50.0%)  1.00( 50.0%) 
 MO     3 (    2) HAS LZ(WEIGHT)=-1.00( 50.0%)  1.00( 50.0%) 
 MO     4 (    3) HAS LZ(WEIGHT)= 0.00(100.0%) 
 MO     5 (    4) HAS LZ(WEIGHT)= 0.00(100.0%) 
 MO     6 (    5) HAS LZ(WEIGHT)=-2.00( 50.0%)  2.00( 50.0%) 
 MO     7 (    5) HAS LZ(WEIGHT)=-2.00( 50.0%)  2.00( 50.0%) 
 MO     8 (    6) HAS LZ(WEIGHT)=-1.00( 50.0%)  1.00( 50.0%) 
 MO     9 (    6) HAS LZ(WEIGHT)=-1.00( 50.0%)  1.00( 50.0%) 
 MO    10 (    7) HAS LZ(WEIGHT)=-1.00( 50.0%)  1.00( 50.0%) 
 MO    11 (    7) HAS LZ(WEIGHT)=-1.00( 50.0%)  1.00( 50.0%) 
 MO    12 (    8) HAS LZ(WEIGHT)= 0.00(100.0%) 
 MO    13 (    9) HAS LZ(WEIGHT)= 0.00(100.0%) 
 MO    14 (   10) HAS LZ(WEIGHT)=-3.00( 50.0%)  3.00( 50.0%) 
 MO    15 (   10) HAS LZ(WEIGHT)=-3.00( 50.0%)  3.00( 50.0%) 
 MO    16 (   11) HAS LZ(WEIGHT)=-2.00( 50.0%)  2.00( 50.0%) 
 MO    17 (   11) HAS LZ(WEIGHT)=-2.00( 50.0%)  2.00( 50.0%) 
 MO    18 (   12) HAS LZ(WEIGHT)=-1.00( 50.0%)  1.00( 50.0%) 
 MO    19 (   12) HAS LZ(WEIGHT)=-1.00( 50.0%)  1.00( 50.0%) 
 MO    20 (   13) HAS LZ(WEIGHT)= 0.00(100.0%) 
 MO    21 (   14) HAS LZ(WEIGHT)=-2.00( 50.0%)  2.00( 50.0%) 
 MO    22 (   14) HAS LZ(WEIGHT)=-2.00( 50.0%)  2.00( 50.0%) 
 MO    23 (   15) HAS LZ(WEIGHT)=-1.00( 50.0%)  1.00( 50.0%) 
 MO    24 (   15) HAS LZ(WEIGHT)=-1.00( 50.0%)  1.00( 50.0%) 
 MO    25 (   16) HAS LZ(WEIGHT)= 0.00(100.0%) 
 MO    26 (   17) HAS LZ(WEIGHT)=-1.00( 50.0%)  1.00( 50.0%) 
 MO    27 (   17) HAS LZ(WEIGHT)=-1.00( 50.0%)  1.00( 50.0%) 
 MO    28 (   18) HAS LZ(WEIGHT)= 0.00(100.0%) 
 MO    29 (   19) HAS LZ(WEIGHT)= 0.00(100.0%) 
 MO    30 (   20) HAS LZ(WEIGHT)= 0.00(100.0%) 
 MO    31 (   21) HAS LZ(WEIGHT)=-1.00( 50.0%)  1.00( 50.0%) 
 MO    32 (   21) HAS LZ(WEIGHT)=-1.00( 50.0%)  1.00( 50.0%) 
 MO    33 (   22) HAS LZ(WEIGHT)=-2.00( 50.0%)  2.00( 50.0%) 
 MO    34 (   22) HAS LZ(WEIGHT)=-2.00( 50.0%)  2.00( 50.0%) 
 MO    35 (   23) HAS LZ(WEIGHT)=-3.00( 50.0%)  3.00( 50.0%) 
 MO    36 (   23) HAS LZ(WEIGHT)=-3.00( 50.0%)  3.00( 50.0%) 
 MO    37 (   24) HAS LZ(WEIGHT)=-4.00( 50.0%)  4.00( 50.0%) 
 MO    38 (   24) HAS LZ(WEIGHT)=-4.00( 50.0%)  4.00( 50.0%) 
 MO    39 (   25) HAS LZ(WEIGHT)= 0.00(100.0%) 
 MO    40 (   26) HAS LZ(WEIGHT)=-1.00( 50.0%)  1.00( 50.0%) 
 MO    41 (   26) HAS LZ(WEIGHT)=-1.00( 50.0%)  1.00( 50.0%) 
 MO    42 (   27) HAS LZ(WEIGHT)=-2.00( 50.0%)  2.00( 50.0%) 
 MO    43 (   27) HAS LZ(WEIGHT)=-2.00( 50.0%)  2.00( 50.0%) 
 MO    44 (   28) HAS LZ(WEIGHT)=-3.00( 50.0%)  3.00( 50.0%) 
 MO    45 (   28) HAS LZ(WEIGHT)=-3.00( 50.0%)  3.00( 50.0%) 
 MO    46 (   29) HAS LZ(WEIGHT)= 0.00(100.0%) 
 MO    47 (   30) HAS LZ(WEIGHT)=-1.00( 50.0%)  1.00( 50.0%) 
 MO    48 (   30) HAS LZ(WEIGHT)=-1.00( 50.0%)  1.00( 50.0%) 
 MO    49 (   31) HAS LZ(WEIGHT)=-2.00( 50.0%)  2.00( 50.0%) 
 MO    50 (   31) HAS LZ(WEIGHT)=-2.00( 50.0%)  2.00( 50.0%) 
 MO    51 (   32) HAS LZ(WEIGHT)= 0.00(100.0%) 
 MO    52 (   33) HAS LZ(WEIGHT)=-1.00( 50.0%)  1.00( 50.0%) 
 MO    53 (   33) HAS LZ(WEIGHT)=-1.00( 50.0%)  1.00( 50.0%) 
 MO    54 (   34) HAS LZ(WEIGHT)= 0.00(100.0%) 

          ------------
          EIGENVECTORS
          ------------

                      1          2          3          4          5
                   -0.3805    -0.1089    -0.1089    -0.0305     0.2244
                     A          A          A          A          A   
    1  SI 1  S    1.000074   0.000000   0.000000   0.000000   0.313293
    2  SI 1  S   -0.000008   0.000000   0.000000   0.000000  -0.632949
    3  SI 1  S    0.000127   0.000000   0.000000   0.000000   2.533743
    4  SI 1  S   -0.000228   0.000000   0.000000   0.000000  -2.417206
    5  SI 1  X    0.000000   1.000147   0.000000   0.000000   0.000000
    6  SI 1  Y    0.000000   0.000000   1.000147   0.000000   0.000000
    7  SI 1  Z    0.000000   0.000000   0.000000   1.448015   0.000000
    8  SI 1  X    0.000000   0.000019   0.000000   0.000000   0.000000
    9  SI 1  Y    0.000000   0.000000   0.000019   0.000000   0.000000
   10  SI 1  Z    0.000000   0.000000   0.000000   0.030303   0.000000
   11  SI 1  X    0.000000  -0.000047   0.000000   0.000000   0.000000
   12  SI 1  Y    0.000000   0.000000  -0.000047   0.000000   0.000000
   13  SI 1  Z    0.000000   0.000000   0.000000  -0.107053   0.000000
   14  SI 1  X    0.000000  -0.000126   0.000000   0.000000   0.000000
   15  SI 1  Y    0.000000   0.000000  -0.000126   0.000000   0.000000
   16  SI 1  Z    0.000000   0.000000   0.000000  -0.411857   0.000000
   17  SI 1 XX    0.000517   0.000000   0.000000   0.000000  -0.001479
   18  SI 1 YY    0.000517   0.000000   0.000000   0.000000  -0.001479
   19  SI 1 ZZ   -0.001035   0.000000   0.000000   0.000000   0.002958
   20  SI 1 XY    0.000000   0.000000   0.000000   0.000000   0.000000
   21  SI 1 XZ    0.000000   0.000000   0.000000   0.000000   0.000000
   22  SI 1 YZ    0.000000   0.000000   0.000000   0.000000   0.000000
   23  SI 1 XX   -0.001096   0.000000   0.000000   0.000000  -0.000487
   24  SI 1 YY   -0.001096   0.000000   0.000000   0.000000  -0.000487
   25  SI 1 ZZ    0.002192   0.000000   0.000000   0.000000   0.000973
   26  SI 1 XY    0.000000   0.000000   0.000000   0.000000   0.000000
   27  SI 1 XZ    0.000000   0.000000   0.000000   0.000000   0.000000
   28  SI 1 YZ    0.000000   0.000000   0.000000   0.000000   0.000000
   29  SI 1 XX    0.004251   0.000000   0.000000   0.000000  -0.031631
   30  SI 1 YY    0.004251   0.000000   0.000000   0.000000  -0.031631
   31  SI 1 ZZ   -0.008501   0.000000   0.000000   0.000000   0.063262
   32  SI 1 XY    0.000000   0.000000   0.000000   0.000000   0.000000
   33  SI 1 XZ    0.000000   0.000000   0.000000   0.000000   0.000000
   34  SI 1 YZ    0.000000   0.000000   0.000000   0.000000   0.000000
   35  SI 1 XXX   0.000000  -0.000047   0.000000   0.000000   0.000000
   36  SI 1 YYY   0.000000   0.000000  -0.000047   0.000000   0.000000
   37  SI 1 ZZZ   0.000000   0.000000   0.000000  -0.002967   0.000000
   38  SI 1 XXY   0.000000   0.000000  -0.000021   0.000000   0.000000
   39  SI 1 XXZ   0.000000   0.000000   0.000000   0.001990   0.000000
   40  SI 1 YYX   0.000000  -0.000021   0.000000   0.000000   0.000000
   41  SI 1 YYZ   0.000000   0.000000   0.000000   0.001990   0.000000
   42  SI 1 ZZX   0.000000   0.000084   0.000000   0.000000   0.000000
   43  SI 1 ZZY   0.000000   0.000000   0.000084   0.000000   0.000000
   44  SI 1 XYZ   0.000000   0.000000   0.000000   0.000000   0.000000
   45  SI 1 XXX   0.000000  -0.000020   0.000000   0.000000   0.000000
   46  SI 1 YYY   0.000000   0.000000  -0.000020   0.000000   0.000000
   47  SI 1 ZZZ   0.000000   0.000000   0.000000  -0.011286   0.000000
   48  SI 1 XXY   0.000000   0.000000  -0.000009   0.000000   0.000000
   49  SI 1 XXZ   0.000000   0.000000   0.000000   0.007571   0.000000
   50  SI 1 YYX   0.000000  -0.000009   0.000000   0.000000   0.000000
   51  SI 1 YYZ   0.000000   0.000000   0.000000   0.007571   0.000000
   52  SI 1 ZZX   0.000000   0.000036   0.000000   0.000000   0.000000
   53  SI 1 ZZY   0.000000   0.000000   0.000036   0.000000   0.000000
   54  SI 1 XYZ   0.000000   0.000000   0.000000   0.000000   0.000000
   55  SI 1XXXX  -0.000014   0.000000   0.000000   0.000000   0.000034
   56  SI 1YYYY  -0.000014   0.000000   0.000000   0.000000   0.000034
   57  SI 1ZZZZ  -0.000038   0.000000   0.000000   0.000000   0.000090
   58  SI 1XXXY   0.000000   0.000000   0.000000   0.000000   0.000000
   59  SI 1XXXZ   0.000000   0.000000   0.000000   0.000000   0.000000
   60  SI 1YYYX   0.000000   0.000000   0.000000   0.000000   0.000000
   61  SI 1YYYZ   0.000000   0.000000   0.000000   0.000000   0.000000
   62  SI 1ZZZX   0.000000   0.000000   0.000000   0.000000   0.000000
   63  SI 1ZZZY   0.000000   0.000000   0.000000   0.000000   0.000000
   64  SI 1XXYY  -0.000008   0.000000   0.000000   0.000000   0.000020
   65  SI 1XXZZ   0.000033   0.000000   0.000000   0.000000  -0.000079
   66  SI 1YYZZ   0.000033   0.000000   0.000000   0.000000  -0.000079
   67  SI 1XXYZ   0.000000   0.000000   0.000000   0.000000   0.000000
   68  SI 1YYXZ   0.000000   0.000000   0.000000   0.000000   0.000000
   69  SI 1ZZXY   0.000000   0.000000   0.000000   0.000000   0.000000

                      6          7          8          9         10
                    0.2257     0.2257     0.2608     0.2608     0.2633
                     A          A          A          A          A   
    1  SI 1  S    0.000000   0.000000   0.000000   0.000000   0.000000
    2  SI 1  S    0.000000   0.000000   0.000000   0.000000   0.000000
    3  SI 1  S    0.000000   0.000000   0.000000   0.000000   0.000000
    4  SI 1  S    0.000000   0.000000   0.000000   0.000000   0.000000
    5  SI 1  X    0.000000   0.000000   0.000000   0.000000   3.152471
    6  SI 1  Y    0.000000   0.000000   0.000000   0.000000   0.000000
    7  SI 1  Z    0.000000   0.000000   0.000000   0.000000   0.000000
    8  SI 1  X    0.000000   0.000000   0.000000   0.000000   0.174305
    9  SI 1  Y    0.000000   0.000000   0.000000   0.000000   0.000000
   10  SI 1  Z    0.000000   0.000000   0.000000   0.000000   0.000000
   11  SI 1  X    0.000000   0.000000   0.000000   0.000000  -0.501652
   12  SI 1  Y    0.000000   0.000000   0.000000   0.000000   0.000000
   13  SI 1  Z    0.000000   0.000000   0.000000   0.000000   0.000000
   14  SI 1  X    0.000000   0.000000   0.000000   0.000000  -2.978913
   15  SI 1  Y    0.000000   0.000000   0.000000   0.000000   0.000000
   16  SI 1  Z    0.000000   0.000000   0.000000   0.000000   0.000000
   17  SI 1 XX    0.085214   0.000000   0.000000   0.000000   0.000000
   18  SI 1 YY   -0.085214   0.000000   0.000000   0.000000   0.000000
   19  SI 1 ZZ    0.000000   0.000000   0.000000   0.000000   0.000000
   20  SI 1 XY    0.000000   0.098396   0.000000   0.000000   0.000000
   21  SI 1 XZ    0.000000   0.000000   0.000000   0.097610   0.000000
   22  SI 1 YZ    0.000000   0.000000   0.097610   0.000000   0.000000
   23  SI 1 XX    0.028652   0.000000   0.000000   0.000000   0.000000
   24  SI 1 YY   -0.028652   0.000000   0.000000   0.000000   0.000000
   25  SI 1 ZZ    0.000000   0.000000   0.000000   0.000000   0.000000
   26  SI 1 XY    0.000000   0.033085   0.000000   0.000000   0.000000
   27  SI 1 XZ    0.000000   0.000000   0.000000  -0.009772   0.000000
   28  SI 1 YZ    0.000000   0.000000  -0.009772   0.000000   0.000000
   29  SI 1 XX    0.822956   0.000000   0.000000   0.000000   0.000000
   30  SI 1 YY   -0.822956   0.000000   0.000000   0.000000   0.000000
   31  SI 1 ZZ    0.000000   0.000000   0.000000   0.000000   0.000000
   32  SI 1 XY    0.000000   0.950267   0.000000   0.000000   0.000000
   33  SI 1 XZ    0.000000   0.000000   0.000000   0.981065   0.000000
   34  SI 1 YZ    0.000000   0.000000   0.981065   0.000000   0.000000
   35  SI 1 XXX   0.000000   0.000000   0.000000   0.000000   0.001026
   36  SI 1 YYY   0.000000   0.000000   0.000000   0.000000   0.000000
   37  SI 1 ZZZ   0.000000   0.000000   0.000000   0.000000   0.000000
   38  SI 1 XXY   0.000000   0.000000   0.000000   0.000000   0.000000
   39  SI 1 XXZ   0.000000   0.000000   0.000000   0.000000   0.000000
   40  SI 1 YYX   0.000000   0.000000   0.000000   0.000000   0.000459
   41  SI 1 YYZ   0.000000   0.000000   0.000000   0.000000   0.000000
   42  SI 1 ZZX   0.000000   0.000000   0.000000   0.000000  -0.001835
   43  SI 1 ZZY   0.000000   0.000000   0.000000   0.000000   0.000000
   44  SI 1 XYZ   0.000000   0.000000   0.000000   0.000000   0.000000
   45  SI 1 XXX   0.000000   0.000000   0.000000   0.000000  -0.004391
   46  SI 1 YYY   0.000000   0.000000   0.000000   0.000000   0.000000
   47  SI 1 ZZZ   0.000000   0.000000   0.000000   0.000000   0.000000
   48  SI 1 XXY   0.000000   0.000000   0.000000   0.000000   0.000000
   49  SI 1 XXZ   0.000000   0.000000   0.000000   0.000000   0.000000
   50  SI 1 YYX   0.000000   0.000000   0.000000   0.000000  -0.001964
   51  SI 1 YYZ   0.000000   0.000000   0.000000   0.000000   0.000000
   52  SI 1 ZZX   0.000000   0.000000   0.000000   0.000000   0.007856
   53  SI 1 ZZY   0.000000   0.000000   0.000000   0.000000   0.000000
   54  SI 1 XYZ   0.000000   0.000000   0.000000   0.000000   0.000000
   55  SI 1XXXX  -0.000530   0.000000   0.000000   0.000000   0.000000
   56  SI 1YYYY   0.000530   0.000000   0.000000   0.000000   0.000000
   57  SI 1ZZZZ   0.000000   0.000000   0.000000   0.000000   0.000000
   58  SI 1XXXY   0.000000  -0.000401   0.000000   0.000000   0.000000
   59  SI 1XXXZ   0.000000   0.000000   0.000000  -0.001153   0.000000
   60  SI 1YYYX   0.000000  -0.000401   0.000000   0.000000   0.000000
   61  SI 1YYYZ   0.000000   0.000000  -0.001153   0.000000   0.000000
   62  SI 1ZZZX   0.000000   0.000000   0.000000   0.001537   0.000000
   63  SI 1ZZZY   0.000000   0.000000   0.001537   0.000000   0.000000
   64  SI 1XXYY   0.000000   0.000000   0.000000   0.000000   0.000000
   65  SI 1XXZZ   0.000931   0.000000   0.000000   0.000000   0.000000
   66  SI 1YYZZ  -0.000931   0.000000   0.000000   0.000000   0.000000
   67  SI 1XXYZ   0.000000   0.000000  -0.000516   0.000000   0.000000
   68  SI 1YYXZ   0.000000   0.000000   0.000000  -0.000516   0.000000
   69  SI 1ZZXY   0.000000   0.001075   0.000000   0.000000   0.000000

                     11         12         13         14         15
                    0.2633     0.2731     0.3008     0.7701     0.7701
                     A          A          A          A          A   
    1  SI 1  S    0.000000   0.020422   0.000000   0.000000   0.000000
    2  SI 1  S    0.000000   0.068461   0.000000   0.000000   0.000000
    3  SI 1  S    0.000000  -0.217210   0.000000   0.000000   0.000000
    4  SI 1  S    0.000000   0.154657   0.000000   0.000000   0.000000
    5  SI 1  X    0.000000   0.000000   0.000000   0.000000   0.000000
    6  SI 1  Y    3.152471   0.000000   0.000000   0.000000   0.000000
    7  SI 1  Z    0.000000   0.000000  -3.008872   0.000000   0.000000
    8  SI 1  X    0.000000   0.000000   0.000000   0.000000   0.000000
    9  SI 1  Y    0.174305   0.000000   0.000000   0.000000   0.000000
   10  SI 1  Z    0.000000   0.000000  -0.164492   0.000000   0.000000
   11  SI 1  X    0.000000   0.000000   0.000000   0.000000   0.000000
   12  SI 1  Y   -0.501652   0.000000   0.000000   0.000000   0.000000
   13  SI 1  Z    0.000000   0.000000   0.439901   0.000000   0.000000
   14  SI 1  X    0.000000   0.000000   0.000000   0.000000   0.000000
   15  SI 1  Y   -2.978913   0.000000   0.000000   0.000000   0.000000
   16  SI 1  Z    0.000000   0.000000   3.031152   0.000000   0.000000
   17  SI 1 XX    0.000000  -0.048667   0.000000   0.000000   0.000000
   18  SI 1 YY    0.000000  -0.048667   0.000000   0.000000   0.000000
   19  SI 1 ZZ    0.000000   0.097335   0.000000   0.000000   0.000000
   20  SI 1 XY    0.000000   0.000000   0.000000   0.000000   0.000000
   21  SI 1 XZ    0.000000   0.000000   0.000000   0.000000   0.000000
   22  SI 1 YZ    0.000000   0.000000   0.000000   0.000000   0.000000
   23  SI 1 XX    0.000000   0.012679   0.000000   0.000000   0.000000
   24  SI 1 YY    0.000000   0.012679   0.000000   0.000000   0.000000
   25  SI 1 ZZ    0.000000  -0.025359   0.000000   0.000000   0.000000
   26  SI 1 XY    0.000000   0.000000   0.000000   0.000000   0.000000
   27  SI 1 XZ    0.000000   0.000000   0.000000   0.000000   0.000000
   28  SI 1 YZ    0.000000   0.000000   0.000000   0.000000   0.000000
   29  SI 1 XX    0.000000  -0.494921   0.000000   0.000000   0.000000
   30  SI 1 YY    0.000000  -0.494921   0.000000   0.000000   0.000000
   31  SI 1 ZZ    0.000000   0.989843   0.000000   0.000000   0.000000
   32  SI 1 XY    0.000000   0.000000   0.000000   0.000000   0.000000
   33  SI 1 XZ    0.000000   0.000000   0.000000   0.000000   0.000000
   34  SI 1 YZ    0.000000   0.000000   0.000000   0.000000   0.000000
   35  SI 1 XXX   0.000000   0.000000   0.000000   0.094466   0.000000
   36  SI 1 YYY   0.001026   0.000000   0.000000   0.000000   0.094466
   37  SI 1 ZZZ   0.000000   0.000000   0.001681   0.000000   0.000000
   38  SI 1 XXY   0.000459   0.000000   0.000000   0.000000  -0.126740
   39  SI 1 XXZ   0.000000   0.000000  -0.001128   0.000000   0.000000
   40  SI 1 YYX   0.000000   0.000000   0.000000  -0.126740   0.000000
   41  SI 1 YYZ   0.000000   0.000000  -0.001128   0.000000   0.000000
   42  SI 1 ZZX   0.000000   0.000000   0.000000   0.000000   0.000000
   43  SI 1 ZZY  -0.001835   0.000000   0.000000   0.000000   0.000000
   44  SI 1 XYZ   0.000000   0.000000   0.000000   0.000000   0.000000
   45  SI 1 XXX   0.000000   0.000000   0.000000  -0.845693   0.000000
   46  SI 1 YYY  -0.004391   0.000000   0.000000   0.000000  -0.845693
   47  SI 1 ZZZ   0.000000   0.000000  -0.012568   0.000000   0.000000
   48  SI 1 XXY  -0.001964   0.000000   0.000000   0.000000   1.134616
   49  SI 1 XXZ   0.000000   0.000000   0.008431   0.000000   0.000000
   50  SI 1 YYX   0.000000   0.000000   0.000000   1.134616   0.000000
   51  SI 1 YYZ   0.000000   0.000000   0.008431   0.000000   0.000000
   52  SI 1 ZZX   0.000000   0.000000   0.000000   0.000000   0.000000
   53  SI 1 ZZY   0.007856   0.000000   0.000000   0.000000   0.000000
   54  SI 1 XYZ   0.000000   0.000000   0.000000   0.000000   0.000000
   55  SI 1XXXX   0.000000   0.000518   0.000000   0.000000   0.000000
   56  SI 1YYYY   0.000000   0.000518   0.000000   0.000000   0.000000
   57  SI 1ZZZZ   0.000000   0.001382   0.000000   0.000000   0.000000
   58  SI 1XXXY   0.000000   0.000000   0.000000   0.000000   0.000000
   59  SI 1XXXZ   0.000000   0.000000   0.000000   0.000000   0.000000
   60  SI 1YYYX   0.000000   0.000000   0.000000   0.000000   0.000000
   61  SI 1YYYZ   0.000000   0.000000   0.000000   0.000000   0.000000
   62  SI 1ZZZX   0.000000   0.000000   0.000000   0.000000   0.000000
   63  SI 1ZZZY   0.000000   0.000000   0.000000   0.000000   0.000000
   64  SI 1XXYY   0.000000   0.000303   0.000000   0.000000   0.000000
   65  SI 1XXZZ   0.000000  -0.001213   0.000000   0.000000   0.000000
   66  SI 1YYZZ   0.000000  -0.001213   0.000000   0.000000   0.000000
   67  SI 1XXYZ   0.000000   0.000000   0.000000   0.000000   0.000000
   68  SI 1YYXZ   0.000000   0.000000   0.000000   0.000000   0.000000
   69  SI 1ZZXY   0.000000   0.000000   0.000000   0.000000   0.000000

                     16         17         18         19         20
                    0.7702     0.7702     0.7702     0.7702     0.7704
                     A          A          A          A          A   
    1  SI 1  S    0.000000   0.000000   0.000000   0.000000   0.000000
    2  SI 1  S    0.000000   0.000000   0.000000   0.000000   0.000000
    3  SI 1  S    0.000000   0.000000   0.000000   0.000000   0.000000
    4  SI 1  S    0.000000   0.000000   0.000000   0.000000   0.000000
    5  SI 1  X    0.000000   0.000000  -0.028288   0.000000   0.000000
    6  SI 1  Y    0.000000   0.000000   0.000000  -0.028288   0.000000
    7  SI 1  Z    0.000000   0.000000   0.000000   0.000000  -0.027258
    8  SI 1  X    0.000000   0.000000   0.001505   0.000000   0.000000
    9  SI 1  Y    0.000000   0.000000   0.000000   0.001505   0.000000
   10  SI 1  Z    0.000000   0.000000   0.000000   0.000000   0.001856
   11  SI 1  X    0.000000   0.000000  -0.007426   0.000000   0.000000
   12  SI 1  Y    0.000000   0.000000   0.000000  -0.007426   0.000000
   13  SI 1  Z    0.000000   0.000000   0.000000   0.000000  -0.010215
   14  SI 1  X    0.000000   0.000000   0.034256   0.000000   0.000000
   15  SI 1  Y    0.000000   0.000000   0.000000   0.034256   0.000000
   16  SI 1  Z    0.000000   0.000000   0.000000   0.000000   0.050103
   17  SI 1 XX    0.000000   0.000000   0.000000   0.000000   0.000000
   18  SI 1 YY    0.000000   0.000000   0.000000   0.000000   0.000000
   19  SI 1 ZZ    0.000000   0.000000   0.000000   0.000000   0.000000
   20  SI 1 XY    0.000000   0.000000   0.000000   0.000000   0.000000
   21  SI 1 XZ    0.000000   0.000000   0.000000   0.000000   0.000000
   22  SI 1 YZ    0.000000   0.000000   0.000000   0.000000   0.000000
   23  SI 1 XX    0.000000   0.000000   0.000000   0.000000   0.000000
   24  SI 1 YY    0.000000   0.000000   0.000000   0.000000   0.000000
   25  SI 1 ZZ    0.000000   0.000000   0.000000   0.000000   0.000000
   26  SI 1 XY    0.000000   0.000000   0.000000   0.000000   0.000000
   27  SI 1 XZ    0.000000   0.000000   0.000000   0.000000   0.000000
   28  SI 1 YZ    0.000000   0.000000   0.000000   0.000000   0.000000
   29  SI 1 XX    0.000000   0.000000   0.000000   0.000000   0.000000
   30  SI 1 YY    0.000000   0.000000   0.000000   0.000000   0.000000
   31  SI 1 ZZ    0.000000   0.000000   0.000000   0.000000   0.000000
   32  SI 1 XY    0.000000   0.000000   0.000000   0.000000   0.000000
   33  SI 1 XZ    0.000000   0.000000   0.000000   0.000000   0.000000
   34  SI 1 YZ    0.000000   0.000000   0.000000   0.000000   0.000000
   35  SI 1 XXX   0.000000   0.000000   0.077633   0.000000   0.000000
   36  SI 1 YYY   0.000000   0.000000   0.000000   0.077633   0.000000
   37  SI 1 ZZZ   0.000000   0.000000   0.000000   0.000000  -0.127779
   38  SI 1 XXY   0.000000   0.000000   0.000000   0.034718   0.000000
   39  SI 1 XXZ  -0.107411   0.000000   0.000000   0.000000   0.085717
   40  SI 1 YYX   0.000000   0.000000   0.034718   0.000000   0.000000
   41  SI 1 YYZ   0.107411   0.000000   0.000000   0.000000   0.085717
   42  SI 1 ZZX   0.000000   0.000000  -0.138874   0.000000   0.000000
   43  SI 1 ZZY   0.000000   0.000000   0.000000  -0.138874   0.000000
   44  SI 1 XYZ   0.000000  -0.124027   0.000000   0.000000   0.000000
   45  SI 1 XXX   0.000000   0.000000  -0.657480   0.000000   0.000000
   46  SI 1 YYY   0.000000   0.000000   0.000000  -0.657480   0.000000
   47  SI 1 ZZZ   0.000000   0.000000   0.000000   0.000000   1.074066
   48  SI 1 XXY   0.000000   0.000000   0.000000  -0.294034   0.000000
   49  SI 1 XXZ   0.928552   0.000000   0.000000   0.000000  -0.720505
   50  SI 1 YYX   0.000000   0.000000  -0.294034   0.000000   0.000000
   51  SI 1 YYZ  -0.928552   0.000000   0.000000   0.000000  -0.720505
   52  SI 1 ZZX   0.000000   0.000000   1.176136   0.000000   0.000000
   53  SI 1 ZZY   0.000000   0.000000   0.000000   1.176136   0.000000
   54  SI 1 XYZ   0.000000   1.072199   0.000000   0.000000   0.000000
   55  SI 1XXXX   0.000000   0.000000   0.000000   0.000000   0.000000
   56  SI 1YYYY   0.000000   0.000000   0.000000   0.000000   0.000000
   57  SI 1ZZZZ   0.000000   0.000000   0.000000   0.000000   0.000000
   58  SI 1XXXY   0.000000   0.000000   0.000000   0.000000   0.000000
   59  SI 1XXXZ   0.000000   0.000000   0.000000   0.000000   0.000000
   60  SI 1YYYX   0.000000   0.000000   0.000000   0.000000   0.000000
   61  SI 1YYYZ   0.000000   0.000000   0.000000   0.000000   0.000000
   62  SI 1ZZZX   0.000000   0.000000   0.000000   0.000000   0.000000
   63  SI 1ZZZY   0.000000   0.000000   0.000000   0.000000   0.000000
   64  SI 1XXYY   0.000000   0.000000   0.000000   0.000000   0.000000
   65  SI 1XXZZ   0.000000   0.000000   0.000000   0.000000   0.000000
   66  SI 1YYZZ   0.000000   0.000000   0.000000   0.000000   0.000000
   67  SI 1XXYZ   0.000000   0.000000   0.000000   0.000000   0.000000
   68  SI 1YYXZ   0.000000   0.000000   0.000000   0.000000   0.000000
   69  SI 1ZZXY   0.000000   0.000000   0.000000   0.000000   0.000000

                     21         22         23         24         25
                    0.9193     0.9193     0.9304     0.9304     0.9343
                     A          A          A          A          A   
    1  SI 1  S    0.000000   0.000000   0.000000   0.000000  -0.008324
    2  SI 1  S    0.000000   0.000000   0.000000   0.000000  -0.005688
    3  SI 1  S    0.000000   0.000000   0.000000   0.000000   0.011948
    4  SI 1  S    0.000000   0.000000   0.000000   0.000000  -0.000435
    5  SI 1  X    0.000000   0.000000   0.000000   0.000000   0.000000
    6  SI 1  Y    0.000000   0.000000   0.000000   0.000000   0.000000
    7  SI 1  Z    0.000000   0.000000   0.000000   0.000000   0.000000
    8  SI 1  X    0.000000   0.000000   0.000000   0.000000   0.000000
    9  SI 1  Y    0.000000   0.000000   0.000000   0.000000   0.000000
   10  SI 1  Z    0.000000   0.000000   0.000000   0.000000   0.000000
   11  SI 1  X    0.000000   0.000000   0.000000   0.000000   0.000000
   12  SI 1  Y    0.000000   0.000000   0.000000   0.000000   0.000000
   13  SI 1  Z    0.000000   0.000000   0.000000   0.000000   0.000000
   14  SI 1  X    0.000000   0.000000   0.000000   0.000000   0.000000
   15  SI 1  Y    0.000000   0.000000   0.000000   0.000000   0.000000
   16  SI 1  Z    0.000000   0.000000   0.000000   0.000000   0.000000
   17  SI 1 XX    0.000000   0.065556   0.000000   0.000000  -0.038358
   18  SI 1 YY    0.000000  -0.065556   0.000000   0.000000  -0.038358
   19  SI 1 ZZ    0.000000   0.000000   0.000000   0.000000   0.076716
   20  SI 1 XY    0.075698   0.000000   0.000000   0.000000   0.000000
   21  SI 1 XZ    0.000000   0.000000   0.000000   0.076409   0.000000
   22  SI 1 YZ    0.000000   0.000000   0.076409   0.000000   0.000000
   23  SI 1 XX    0.000000   1.081024   0.000000   0.000000  -0.625822
   24  SI 1 YY    0.000000  -1.081024   0.000000   0.000000  -0.625822
   25  SI 1 ZZ    0.000000   0.000000   0.000000   0.000000   1.251643
   26  SI 1 XY    1.248259   0.000000   0.000000   0.000000   0.000000
   27  SI 1 XZ    0.000000   0.000000   0.000000   1.251043   0.000000
   28  SI 1 YZ    0.000000   0.000000   1.251043   0.000000   0.000000
   29  SI 1 XX    0.000000  -0.805713   0.000000   0.000000   0.443991
   30  SI 1 YY    0.000000   0.805713   0.000000   0.000000   0.443991
   31  SI 1 ZZ    0.000000   0.000000   0.000000   0.000000  -0.887983
   32  SI 1 XY   -0.930358   0.000000   0.000000   0.000000   0.000000
   33  SI 1 XZ    0.000000   0.000000   0.000000  -0.899422   0.000000
   34  SI 1 YZ    0.000000   0.000000  -0.899422   0.000000   0.000000
   35  SI 1 XXX   0.000000   0.000000   0.000000   0.000000   0.000000
   36  SI 1 YYY   0.000000   0.000000   0.000000   0.000000   0.000000
   37  SI 1 ZZZ   0.000000   0.000000   0.000000   0.000000   0.000000
   38  SI 1 XXY   0.000000   0.000000   0.000000   0.000000   0.000000
   39  SI 1 XXZ   0.000000   0.000000   0.000000   0.000000   0.000000
   40  SI 1 YYX   0.000000   0.000000   0.000000   0.000000   0.000000
   41  SI 1 YYZ   0.000000   0.000000   0.000000   0.000000   0.000000
   42  SI 1 ZZX   0.000000   0.000000   0.000000   0.000000   0.000000
   43  SI 1 ZZY   0.000000   0.000000   0.000000   0.000000   0.000000
   44  SI 1 XYZ   0.000000   0.000000   0.000000   0.000000   0.000000
   45  SI 1 XXX   0.000000   0.000000   0.000000   0.000000   0.000000
   46  SI 1 YYY   0.000000   0.000000   0.000000   0.000000   0.000000
   47  SI 1 ZZZ   0.000000   0.000000   0.000000   0.000000   0.000000
   48  SI 1 XXY   0.000000   0.000000   0.000000   0.000000   0.000000
   49  SI 1 XXZ   0.000000   0.000000   0.000000   0.000000   0.000000
   50  SI 1 YYX   0.000000   0.000000   0.000000   0.000000   0.000000
   51  SI 1 YYZ   0.000000   0.000000   0.000000   0.000000   0.000000
   52  SI 1 ZZX   0.000000   0.000000   0.000000   0.000000   0.000000
   53  SI 1 ZZY   0.000000   0.000000   0.000000   0.000000   0.000000
   54  SI 1 XYZ   0.000000   0.000000   0.000000   0.000000   0.000000
   55  SI 1XXXX   0.000000  -0.001340   0.000000   0.000000   0.001452
   56  SI 1YYYY   0.000000   0.001340   0.000000   0.000000   0.001452
   57  SI 1ZZZZ   0.000000   0.000000   0.000000   0.000000   0.003873
   58  SI 1XXXY  -0.001013   0.000000   0.000000   0.000000   0.000000
   59  SI 1XXXZ   0.000000   0.000000   0.000000  -0.003136   0.000000
   60  SI 1YYYX  -0.001013   0.000000   0.000000   0.000000   0.000000
   61  SI 1YYYZ   0.000000   0.000000  -0.003136   0.000000   0.000000
   62  SI 1ZZZX   0.000000   0.000000   0.000000   0.004181   0.000000
   63  SI 1ZZZY   0.000000   0.000000   0.004181   0.000000   0.000000
   64  SI 1XXYY   0.000000   0.000000   0.000000   0.000000   0.000850
   65  SI 1XXZZ   0.000000   0.002355   0.000000   0.000000  -0.003401
   66  SI 1YYZZ   0.000000  -0.002355   0.000000   0.000000  -0.003401
   67  SI 1XXYZ   0.000000   0.000000  -0.001402   0.000000   0.000000
   68  SI 1YYXZ   0.000000   0.000000   0.000000  -0.001402   0.000000
   69  SI 1ZZXY   0.002719   0.000000   0.000000   0.000000   0.000000

                     26         27         28         29         30
                    1.3303     1.3303     1.3424     1.4021     2.1822
                     A          A          A          A          A   
    1  SI 1  S    0.000000   0.000000   0.000000  -4.920751   0.000477
    2  SI 1  S    0.000000   0.000000   0.000000  -3.862390   0.000371
    3  SI 1  S    0.000000   0.000000   0.000000   7.618429  -0.000768
    4  SI 1  S    0.000000   0.000000   0.000000   0.347825   0.000029
    5  SI 1  X   -1.773820   0.000000   0.000000   0.000000   0.000000
    6  SI 1  Y    0.000000  -1.773820   0.000000   0.000000   0.000000
    7  SI 1  Z    0.000000   0.000000  -1.714623   0.000000   0.000000
    8  SI 1  X    0.332813   0.000000   0.000000   0.000000   0.000000
    9  SI 1  Y    0.000000   0.332813   0.000000   0.000000   0.000000
   10  SI 1  Z    0.000000   0.000000   0.342231   0.000000   0.000000
   11  SI 1  X   -2.046287   0.000000   0.000000   0.000000   0.000000
   12  SI 1  Y    0.000000  -2.046287   0.000000   0.000000   0.000000
   13  SI 1  Z    0.000000   0.000000  -2.063588   0.000000   0.000000
   14  SI 1  X    3.224315   0.000000   0.000000   0.000000   0.000000
   15  SI 1  Y    0.000000   3.224315   0.000000   0.000000   0.000000
   16  SI 1  Z    0.000000   0.000000   3.151407   0.000000   0.000000
   17  SI 1 XX    0.000000   0.000000   0.000000   0.003291   0.007234
   18  SI 1 YY    0.000000   0.000000   0.000000   0.003291   0.007234
   19  SI 1 ZZ    0.000000   0.000000   0.000000  -0.006582  -0.014467
   20  SI 1 XY    0.000000   0.000000   0.000000   0.000000   0.000000
   21  SI 1 XZ    0.000000   0.000000   0.000000   0.000000   0.000000
   22  SI 1 YZ    0.000000   0.000000   0.000000   0.000000   0.000000
   23  SI 1 XX    0.000000   0.000000   0.000000  -0.002462  -0.004278
   24  SI 1 YY    0.000000   0.000000   0.000000  -0.002462  -0.004278
   25  SI 1 ZZ    0.000000   0.000000   0.000000   0.004923   0.008557
   26  SI 1 XY    0.000000   0.000000   0.000000   0.000000   0.000000
   27  SI 1 XZ    0.000000   0.000000   0.000000   0.000000   0.000000
   28  SI 1 YZ    0.000000   0.000000   0.000000   0.000000   0.000000
   29  SI 1 XX    0.000000   0.000000   0.000000  -0.002897   0.001498
   30  SI 1 YY    0.000000   0.000000   0.000000  -0.002897   0.001498
   31  SI 1 ZZ    0.000000   0.000000   0.000000   0.005793  -0.002996
   32  SI 1 XY    0.000000   0.000000   0.000000   0.000000   0.000000
   33  SI 1 XZ    0.000000   0.000000   0.000000   0.000000   0.000000
   34  SI 1 YZ    0.000000   0.000000   0.000000   0.000000   0.000000
   35  SI 1 XXX   0.002567   0.000000   0.000000   0.000000   0.000000
   36  SI 1 YYY   0.000000   0.002567   0.000000   0.000000   0.000000
   37  SI 1 ZZZ   0.000000   0.000000  -0.004993   0.000000   0.000000
   38  SI 1 XXY   0.000000   0.001148   0.000000   0.000000   0.000000
   39  SI 1 XXZ   0.000000   0.000000   0.003349   0.000000   0.000000
   40  SI 1 YYX   0.001148   0.000000   0.000000   0.000000   0.000000
   41  SI 1 YYZ   0.000000   0.000000   0.003349   0.000000   0.000000
   42  SI 1 ZZX  -0.004592   0.000000   0.000000   0.000000   0.000000
   43  SI 1 ZZY   0.000000  -0.004592   0.000000   0.000000   0.000000
   44  SI 1 XYZ   0.000000   0.000000   0.000000   0.000000   0.000000
   45  SI 1 XXX   0.001432   0.000000   0.000000   0.000000   0.000000
   46  SI 1 YYY   0.000000   0.001432   0.000000   0.000000   0.000000
   47  SI 1 ZZZ   0.000000   0.000000  -0.003397   0.000000   0.000000
   48  SI 1 XXY   0.000000   0.000641   0.000000   0.000000   0.000000
   49  SI 1 XXZ   0.000000   0.000000   0.002279   0.000000   0.000000
   50  SI 1 YYX   0.000641   0.000000   0.000000   0.000000   0.000000
   51  SI 1 YYZ   0.000000   0.000000   0.002279   0.000000   0.000000
   52  SI 1 ZZX  -0.002562   0.000000   0.000000   0.000000   0.000000
   53  SI 1 ZZY   0.000000  -0.002562   0.000000   0.000000   0.000000
   54  SI 1 XYZ   0.000000   0.000000   0.000000   0.000000   0.000000
   55  SI 1XXXX   0.000000   0.000000   0.000000   0.000017   0.374979
   56  SI 1YYYY   0.000000   0.000000   0.000000   0.000017   0.374979
   57  SI 1ZZZZ   0.000000   0.000000   0.000000   0.000046   0.999943
   58  SI 1XXXY   0.000000   0.000000   0.000000   0.000000   0.000000
   59  SI 1XXXZ   0.000000   0.000000   0.000000   0.000000   0.000000
   60  SI 1YYYX   0.000000   0.000000   0.000000   0.000000   0.000000
   61  SI 1YYYZ   0.000000   0.000000   0.000000   0.000000   0.000000
   62  SI 1ZZZX   0.000000   0.000000   0.000000   0.000000   0.000000
   63  SI 1ZZZY   0.000000   0.000000   0.000000   0.000000   0.000000
   64  SI 1XXYY   0.000000   0.000000   0.000000   0.000010   0.219565
   65  SI 1XXZZ   0.000000   0.000000   0.000000  -0.000041  -0.878260
   66  SI 1YYZZ   0.000000   0.000000   0.000000  -0.000041  -0.878260
   67  SI 1XXYZ   0.000000   0.000000   0.000000   0.000000   0.000000
   68  SI 1YYXZ   0.000000   0.000000   0.000000   0.000000   0.000000
   69  SI 1ZZXY   0.000000   0.000000   0.000000   0.000000   0.000000

                     31         32         33         34         35
                    2.1834     2.1834     2.1869     2.1869     2.1929
                     A          A          A          A          A   
    1  SI 1  S    0.000000   0.000000   0.000000   0.000000   0.000000
    2  SI 1  S    0.000000   0.000000   0.000000   0.000000   0.000000
    3  SI 1  S    0.000000   0.000000   0.000000   0.000000   0.000000
    4  SI 1  S    0.000000   0.000000   0.000000   0.000000   0.000000
    5  SI 1  X    0.000000   0.000000   0.000000   0.000000   0.000000
    6  SI 1  Y    0.000000   0.000000   0.000000   0.000000   0.000000
    7  SI 1  Z    0.000000   0.000000   0.000000   0.000000   0.000000
    8  SI 1  X    0.000000   0.000000   0.000000   0.000000   0.000000
    9  SI 1  Y    0.000000   0.000000   0.000000   0.000000   0.000000
   10  SI 1  Z    0.000000   0.000000   0.000000   0.000000   0.000000
   11  SI 1  X    0.000000   0.000000   0.000000   0.000000   0.000000
   12  SI 1  Y    0.000000   0.000000   0.000000   0.000000   0.000000
   13  SI 1  Z    0.000000   0.000000   0.000000   0.000000   0.000000
   14  SI 1  X    0.000000   0.000000   0.000000   0.000000   0.000000
   15  SI 1  Y    0.000000   0.000000   0.000000   0.000000   0.000000
   16  SI 1  Z    0.000000   0.000000   0.000000   0.000000   0.000000
   17  SI 1 XX    0.000000   0.000000   0.000000  -0.007954   0.000000
   18  SI 1 YY    0.000000   0.000000   0.000000   0.007954   0.000000
   19  SI 1 ZZ    0.000000   0.000000   0.000000   0.000000   0.000000
   20  SI 1 XY    0.000000   0.000000  -0.009185   0.000000   0.000000
   21  SI 1 XZ    0.000000  -0.013154   0.000000   0.000000   0.000000
   22  SI 1 YZ   -0.013154   0.000000   0.000000   0.000000   0.000000
   23  SI 1 XX    0.000000   0.000000   0.000000   0.004747   0.000000
   24  SI 1 YY    0.000000   0.000000   0.000000  -0.004747   0.000000
   25  SI 1 ZZ    0.000000   0.000000   0.000000   0.000000   0.000000
   26  SI 1 XY    0.000000   0.000000   0.005481   0.000000   0.000000
   27  SI 1 XZ    0.000000   0.007797   0.000000   0.000000   0.000000
   28  SI 1 YZ    0.007797   0.000000   0.000000   0.000000   0.000000
   29  SI 1 XX    0.000000   0.000000   0.000000  -0.001651   0.000000
   30  SI 1 YY    0.000000   0.000000   0.000000   0.001651   0.000000
   31  SI 1 ZZ    0.000000   0.000000   0.000000   0.000000   0.000000
   32  SI 1 XY    0.000000   0.000000  -0.001906   0.000000   0.000000
   33  SI 1 XZ    0.000000  -0.002725   0.000000   0.000000   0.000000
   34  SI 1 YZ   -0.002725   0.000000   0.000000   0.000000   0.000000
   35  SI 1 XXX   0.000000   0.000000   0.000000   0.000000   0.000000
   36  SI 1 YYY   0.000000   0.000000   0.000000   0.000000   0.000000
   37  SI 1 ZZZ   0.000000   0.000000   0.000000   0.000000   0.000000
   38  SI 1 XXY   0.000000   0.000000   0.000000   0.000000   0.000000
   39  SI 1 XXZ   0.000000   0.000000   0.000000   0.000000   0.000000
   40  SI 1 YYX   0.000000   0.000000   0.000000   0.000000   0.000000
   41  SI 1 YYZ   0.000000   0.000000   0.000000   0.000000   0.000000
   42  SI 1 ZZX   0.000000   0.000000   0.000000   0.000000   0.000000
   43  SI 1 ZZY   0.000000   0.000000   0.000000   0.000000   0.000000
   44  SI 1 XYZ   0.000000   0.000000   0.000000   0.000000   0.000000
   45  SI 1 XXX   0.000000   0.000000   0.000000   0.000000   0.000000
   46  SI 1 YYY   0.000000   0.000000   0.000000   0.000000   0.000000
   47  SI 1 ZZZ   0.000000   0.000000   0.000000   0.000000   0.000000
   48  SI 1 XXY   0.000000   0.000000   0.000000   0.000000   0.000000
   49  SI 1 XXZ   0.000000   0.000000   0.000000   0.000000   0.000000
   50  SI 1 YYX   0.000000   0.000000   0.000000   0.000000   0.000000
   51  SI 1 YYZ   0.000000   0.000000   0.000000   0.000000   0.000000
   52  SI 1 ZZX   0.000000   0.000000   0.000000   0.000000   0.000000
   53  SI 1 ZZY   0.000000   0.000000   0.000000   0.000000   0.000000
   54  SI 1 XYZ   0.000000   0.000000   0.000000   0.000000   0.000000
   55  SI 1XXXX   0.000000   0.000000   0.000000  -0.559004   0.000000
   56  SI 1YYYY   0.000000   0.000000   0.000000   0.559004   0.000000
   57  SI 1ZZZZ   0.000000   0.000000   0.000000   0.000000   0.000000
   58  SI 1XXXY   0.000000   0.000000  -0.422567   0.000000   0.000000
   59  SI 1XXXZ   0.000000  -0.896379   0.000000   0.000000   0.000000
   60  SI 1YYYX   0.000000   0.000000  -0.422567   0.000000   0.000000
   61  SI 1YYYZ  -0.896379   0.000000   0.000000   0.000000  -0.790569
   62  SI 1ZZZX   0.000000   1.195172   0.000000   0.000000   0.000000
   63  SI 1ZZZY   1.195172   0.000000   0.000000   0.000000   0.000000
   64  SI 1XXYY   0.000000   0.000000   0.000000   0.000000   0.000000
   65  SI 1XXZZ   0.000000   0.000000   0.000000   0.981958   0.000000
   66  SI 1YYZZ   0.000000   0.000000   0.000000  -0.981958   0.000000
   67  SI 1XXYZ  -0.400873   0.000000   0.000000   0.000000   1.060660
   68  SI 1YYXZ   0.000000  -0.400873   0.000000   0.000000   0.000000
   69  SI 1ZZXY   0.000000   0.000000   1.133867   0.000000   0.000000

                     36         37         38         39         40
                    2.1929     2.2011     2.2011     2.2600     2.2612
                     A          A          A          A          A   
    1  SI 1  S    0.000000   0.000000   0.000000   0.000000   0.000000
    2  SI 1  S    0.000000   0.000000   0.000000   0.000000   0.000000
    3  SI 1  S    0.000000   0.000000   0.000000   0.000000   0.000000
    4  SI 1  S    0.000000   0.000000   0.000000   0.000000   0.000000
    5  SI 1  X    0.000000   0.000000   0.000000   0.000000   0.000000
    6  SI 1  Y    0.000000   0.000000   0.000000   0.000000  -0.003718
    7  SI 1  Z    0.000000   0.000000   0.000000  -0.001061   0.000000
    8  SI 1  X    0.000000   0.000000   0.000000   0.000000   0.000000
    9  SI 1  Y    0.000000   0.000000   0.000000   0.000000  -0.000673
   10  SI 1  Z    0.000000   0.000000   0.000000  -0.000816   0.000000
   11  SI 1  X    0.000000   0.000000   0.000000   0.000000   0.000000
   12  SI 1  Y    0.000000   0.000000   0.000000   0.000000  -0.005810
   13  SI 1  Z    0.000000   0.000000   0.000000  -0.007104   0.000000
   14  SI 1  X    0.000000   0.000000   0.000000   0.000000   0.000000
   15  SI 1  Y    0.000000   0.000000   0.000000   0.000000   0.008327
   16  SI 1  Z    0.000000   0.000000   0.000000   0.010252   0.000000
   17  SI 1 XX    0.000000   0.000000   0.000000   0.000000   0.000000
   18  SI 1 YY    0.000000   0.000000   0.000000   0.000000   0.000000
   19  SI 1 ZZ    0.000000   0.000000   0.000000   0.000000   0.000000
   20  SI 1 XY    0.000000   0.000000   0.000000   0.000000   0.000000
   21  SI 1 XZ    0.000000   0.000000   0.000000   0.000000   0.000000
   22  SI 1 YZ    0.000000   0.000000   0.000000   0.000000   0.000000
   23  SI 1 XX    0.000000   0.000000   0.000000   0.000000   0.000000
   24  SI 1 YY    0.000000   0.000000   0.000000   0.000000   0.000000
   25  SI 1 ZZ    0.000000   0.000000   0.000000   0.000000   0.000000
   26  SI 1 XY    0.000000   0.000000   0.000000   0.000000   0.000000
   27  SI 1 XZ    0.000000   0.000000   0.000000   0.000000   0.000000
   28  SI 1 YZ    0.000000   0.000000   0.000000   0.000000   0.000000
   29  SI 1 XX    0.000000   0.000000   0.000000   0.000000   0.000000
   30  SI 1 YY    0.000000   0.000000   0.000000   0.000000   0.000000
   31  SI 1 ZZ    0.000000   0.000000   0.000000   0.000000   0.000000
   32  SI 1 XY    0.000000   0.000000   0.000000   0.000000   0.000000
   33  SI 1 XZ    0.000000   0.000000   0.000000   0.000000   0.000000
   34  SI 1 YZ    0.000000   0.000000   0.000000   0.000000   0.000000
   35  SI 1 XXX   0.000000   0.000000   0.000000   0.000000   0.000000
   36  SI 1 YYY   0.000000   0.000000   0.000000   0.000000  -0.776898
   37  SI 1 ZZZ   0.000000   0.000000   0.000000   1.268562   0.000000
   38  SI 1 XXY   0.000000   0.000000   0.000000   0.000000  -0.347439
   39  SI 1 XXZ   0.000000   0.000000   0.000000  -0.850977   0.000000
   40  SI 1 YYX   0.000000   0.000000   0.000000   0.000000   0.000000
   41  SI 1 YYZ   0.000000   0.000000   0.000000  -0.850977   0.000000
   42  SI 1 ZZX   0.000000   0.000000   0.000000   0.000000   0.000000
   43  SI 1 ZZY   0.000000   0.000000   0.000000   0.000000   1.389758
   44  SI 1 XYZ   0.000000   0.000000   0.000000   0.000000   0.000000
   45  SI 1 XXX   0.000000   0.000000   0.000000   0.000000   0.000000
   46  SI 1 YYY   0.000000   0.000000   0.000000   0.000000   0.421075
   47  SI 1 ZZZ   0.000000   0.000000   0.000000  -0.686804   0.000000
   48  SI 1 XXY   0.000000   0.000000   0.000000   0.000000   0.188311
   49  SI 1 XXZ   0.000000   0.000000   0.000000   0.460722   0.000000
   50  SI 1 YYX   0.000000   0.000000   0.000000   0.000000   0.000000
   51  SI 1 YYZ   0.000000   0.000000   0.000000   0.460722   0.000000
   52  SI 1 ZZX   0.000000   0.000000   0.000000   0.000000   0.000000
   53  SI 1 ZZY   0.000000   0.000000   0.000000   0.000000  -0.753242
   54  SI 1 XYZ   0.000000   0.000000   0.000000   0.000000   0.000000
   55  SI 1XXXX   0.000000   0.000000  -0.739510   0.000000   0.000000
   56  SI 1YYYY   0.000000   0.000000  -0.739510   0.000000   0.000000
   57  SI 1ZZZZ   0.000000   0.000000   0.000000   0.000000   0.000000
   58  SI 1XXXY   0.000000   1.118034   0.000000   0.000000   0.000000
   59  SI 1XXXZ  -0.790569   0.000000   0.000000   0.000000   0.000000
   60  SI 1YYYX   0.000000  -1.118034   0.000000   0.000000   0.000000
   61  SI 1YYYZ   0.000000   0.000000   0.000000   0.000000   0.000000
   62  SI 1ZZZX   0.000000   0.000000   0.000000   0.000000   0.000000
   63  SI 1ZZZY   0.000000   0.000000   0.000000   0.000000   0.000000
   64  SI 1XXYY   0.000000   0.000000   1.299038   0.000000   0.000000
   65  SI 1XXZZ   0.000000   0.000000   0.000000   0.000000   0.000000
   66  SI 1YYZZ   0.000000   0.000000   0.000000   0.000000   0.000000
   67  SI 1XXYZ   0.000000   0.000000   0.000000   0.000000   0.000000
   68  SI 1YYXZ   1.060660   0.000000   0.000000   0.000000   0.000000
   69  SI 1ZZXY   0.000000   0.000000   0.000000   0.000000   0.000000

                     41         42         43         44         45
                    2.2612     2.2649     2.2649     2.2712     2.2712
                     A          A          A          A          A   
    1  SI 1  S    0.000000   0.000000   0.000000   0.000000   0.000000
    2  SI 1  S    0.000000   0.000000   0.000000   0.000000   0.000000
    3  SI 1  S    0.000000   0.000000   0.000000   0.000000   0.000000
    4  SI 1  S    0.000000   0.000000   0.000000   0.000000   0.000000
    5  SI 1  X   -0.003718   0.000000   0.000000   0.000000   0.000000
    6  SI 1  Y    0.000000   0.000000   0.000000   0.000000   0.000000
    7  SI 1  Z    0.000000   0.000000   0.000000   0.000000   0.000000
    8  SI 1  X   -0.000673   0.000000   0.000000   0.000000   0.000000
    9  SI 1  Y    0.000000   0.000000   0.000000   0.000000   0.000000
   10  SI 1  Z    0.000000   0.000000   0.000000   0.000000   0.000000
   11  SI 1  X   -0.005810   0.000000   0.000000   0.000000   0.000000
   12  SI 1  Y    0.000000   0.000000   0.000000   0.000000   0.000000
   13  SI 1  Z    0.000000   0.000000   0.000000   0.000000   0.000000
   14  SI 1  X    0.008327   0.000000   0.000000   0.000000   0.000000
   15  SI 1  Y    0.000000   0.000000   0.000000   0.000000   0.000000
   16  SI 1  Z    0.000000   0.000000   0.000000   0.000000   0.000000
   17  SI 1 XX    0.000000   0.000000   0.000000   0.000000   0.000000
   18  SI 1 YY    0.000000   0.000000   0.000000   0.000000   0.000000
   19  SI 1 ZZ    0.000000   0.000000   0.000000   0.000000   0.000000
   20  SI 1 XY    0.000000   0.000000   0.000000   0.000000   0.000000
   21  SI 1 XZ    0.000000   0.000000   0.000000   0.000000   0.000000
   22  SI 1 YZ    0.000000   0.000000   0.000000   0.000000   0.000000
   23  SI 1 XX    0.000000   0.000000   0.000000   0.000000   0.000000
   24  SI 1 YY    0.000000   0.000000   0.000000   0.000000   0.000000
   25  SI 1 ZZ    0.000000   0.000000   0.000000   0.000000   0.000000
   26  SI 1 XY    0.000000   0.000000   0.000000   0.000000   0.000000
   27  SI 1 XZ    0.000000   0.000000   0.000000   0.000000   0.000000
   28  SI 1 YZ    0.000000   0.000000   0.000000   0.000000   0.000000
   29  SI 1 XX    0.000000   0.000000   0.000000   0.000000   0.000000
   30  SI 1 YY    0.000000   0.000000   0.000000   0.000000   0.000000
   31  SI 1 ZZ    0.000000   0.000000   0.000000   0.000000   0.000000
   32  SI 1 XY    0.000000   0.000000   0.000000   0.000000   0.000000
   33  SI 1 XZ    0.000000   0.000000   0.000000   0.000000   0.000000
   34  SI 1 YZ    0.000000   0.000000   0.000000   0.000000   0.000000
   35  SI 1 XXX  -0.776898   0.000000   0.000000   0.000000  -1.003537
   36  SI 1 YYY   0.000000   0.000000   0.000000  -1.003537   0.000000
   37  SI 1 ZZZ   0.000000   0.000000   0.000000   0.000000   0.000000
   38  SI 1 XXY   0.000000   0.000000   0.000000   1.346386   0.000000
   39  SI 1 XXZ   0.000000   1.098943   0.000000   0.000000   0.000000
   40  SI 1 YYX  -0.347439   0.000000   0.000000   0.000000   1.346386
   41  SI 1 YYZ   0.000000  -1.098943   0.000000   0.000000   0.000000
   42  SI 1 ZZX   1.389758   0.000000   0.000000   0.000000   0.000000
   43  SI 1 ZZY   0.000000   0.000000   0.000000   0.000000   0.000000
   44  SI 1 XYZ   0.000000   0.000000   1.268950   0.000000   0.000000
   45  SI 1 XXX   0.421075   0.000000   0.000000   0.000000   0.548464
   46  SI 1 YYY   0.000000   0.000000   0.000000   0.548464   0.000000
   47  SI 1 ZZZ   0.000000   0.000000   0.000000   0.000000   0.000000
   48  SI 1 XXY   0.000000   0.000000   0.000000  -0.735842   0.000000
   49  SI 1 XXZ   0.000000  -0.597498   0.000000   0.000000   0.000000
   50  SI 1 YYX   0.188311   0.000000   0.000000   0.000000  -0.735842
   51  SI 1 YYZ   0.000000   0.597498   0.000000   0.000000   0.000000
   52  SI 1 ZZX  -0.753242   0.000000   0.000000   0.000000   0.000000
   53  SI 1 ZZY   0.000000   0.000000   0.000000   0.000000   0.000000
   54  SI 1 XYZ   0.000000   0.000000  -0.689931   0.000000   0.000000
   55  SI 1XXXX   0.000000   0.000000   0.000000   0.000000   0.000000
   56  SI 1YYYY   0.000000   0.000000   0.000000   0.000000   0.000000
   57  SI 1ZZZZ   0.000000   0.000000   0.000000   0.000000   0.000000
   58  SI 1XXXY   0.000000   0.000000   0.000000   0.000000   0.000000
   59  SI 1XXXZ   0.000000   0.000000   0.000000   0.000000   0.000000
   60  SI 1YYYX   0.000000   0.000000   0.000000   0.000000   0.000000
   61  SI 1YYYZ   0.000000   0.000000   0.000000   0.000000   0.000000
   62  SI 1ZZZX   0.000000   0.000000   0.000000   0.000000   0.000000
   63  SI 1ZZZY   0.000000   0.000000   0.000000   0.000000   0.000000
   64  SI 1XXYY   0.000000   0.000000   0.000000   0.000000   0.000000
   65  SI 1XXZZ   0.000000   0.000000   0.000000   0.000000   0.000000
   66  SI 1YYZZ   0.000000   0.000000   0.000000   0.000000   0.000000
   67  SI 1XXYZ   0.000000   0.000000   0.000000   0.000000   0.000000
   68  SI 1YYXZ   0.000000   0.000000   0.000000   0.000000   0.000000
   69  SI 1ZZXY   0.000000   0.000000   0.000000   0.000000   0.000000

                     46         47         48         49         50
                    2.6647     2.6681     2.6681     2.6784     2.6784
                     A          A          A          A          A   
    1  SI 1  S   -0.023767   0.000000   0.000000   0.000000   0.000000
    2  SI 1  S   -0.020972   0.000000   0.000000   0.000000   0.000000
    3  SI 1  S    0.044331   0.000000   0.000000   0.000000   0.000000
    4  SI 1  S   -0.003892   0.000000   0.000000   0.000000   0.000000
    5  SI 1  X    0.000000   0.000000   0.000000   0.000000   0.000000
    6  SI 1  Y    0.000000   0.000000   0.000000   0.000000   0.000000
    7  SI 1  Z    0.000000   0.000000   0.000000   0.000000   0.000000
    8  SI 1  X    0.000000   0.000000   0.000000   0.000000   0.000000
    9  SI 1  Y    0.000000   0.000000   0.000000   0.000000   0.000000
   10  SI 1  Z    0.000000   0.000000   0.000000   0.000000   0.000000
   11  SI 1  X    0.000000   0.000000   0.000000   0.000000   0.000000
   12  SI 1  Y    0.000000   0.000000   0.000000   0.000000   0.000000
   13  SI 1  Z    0.000000   0.000000   0.000000   0.000000   0.000000
   14  SI 1  X    0.000000   0.000000   0.000000   0.000000   0.000000
   15  SI 1  Y    0.000000   0.000000   0.000000   0.000000   0.000000
   16  SI 1  Z    0.000000   0.000000   0.000000   0.000000   0.000000
   17  SI 1 XX   -0.710523   0.000000   0.000000   1.230700   0.000000
   18  SI 1 YY   -0.710523   0.000000   0.000000  -1.230700   0.000000
   19  SI 1 ZZ    1.421046   0.000000   0.000000   0.000000   0.000000
   20  SI 1 XY    0.000000   0.000000   0.000000   0.000000   1.421090
   21  SI 1 XZ    0.000000   0.000000   1.421075   0.000000   0.000000
   22  SI 1 YZ    0.000000   1.421075   0.000000   0.000000   0.000000
   23  SI 1 XX    0.676786   0.000000   0.000000  -1.174810   0.000000
   24  SI 1 YY    0.676786   0.000000   0.000000   1.174810   0.000000
   25  SI 1 ZZ   -1.353571   0.000000   0.000000   0.000000   0.000000
   26  SI 1 XY    0.000000   0.000000   0.000000   0.000000  -1.356554
   27  SI 1 XZ    0.000000   0.000000  -1.354344   0.000000   0.000000
   28  SI 1 YZ    0.000000  -1.354344   0.000000   0.000000   0.000000
   29  SI 1 XX   -0.256209   0.000000   0.000000   0.447002   0.000000
   30  SI 1 YY   -0.256209   0.000000   0.000000  -0.447002   0.000000
   31  SI 1 ZZ    0.512418   0.000000   0.000000   0.000000   0.000000
   32  SI 1 XY    0.000000   0.000000   0.000000   0.000000   0.516153
   33  SI 1 XZ    0.000000   0.000000   0.513359   0.000000   0.000000
   34  SI 1 YZ    0.000000   0.513359   0.000000   0.000000   0.000000
   35  SI 1 XXX   0.000000   0.000000   0.000000   0.000000   0.000000
   36  SI 1 YYY   0.000000   0.000000   0.000000   0.000000   0.000000
   37  SI 1 ZZZ   0.000000   0.000000   0.000000   0.000000   0.000000
   38  SI 1 XXY   0.000000   0.000000   0.000000   0.000000   0.000000
   39  SI 1 XXZ   0.000000   0.000000   0.000000   0.000000   0.000000
   40  SI 1 YYX   0.000000   0.000000   0.000000   0.000000   0.000000
   41  SI 1 YYZ   0.000000   0.000000   0.000000   0.000000   0.000000
   42  SI 1 ZZX   0.000000   0.000000   0.000000   0.000000   0.000000
   43  SI 1 ZZY   0.000000   0.000000   0.000000   0.000000   0.000000
   44  SI 1 XYZ   0.000000   0.000000   0.000000   0.000000   0.000000
   45  SI 1 XXX   0.000000   0.000000   0.000000   0.000000   0.000000
   46  SI 1 YYY   0.000000   0.000000   0.000000   0.000000   0.000000
   47  SI 1 ZZZ   0.000000   0.000000   0.000000   0.000000   0.000000
   48  SI 1 XXY   0.000000   0.000000   0.000000   0.000000   0.000000
   49  SI 1 XXZ   0.000000   0.000000   0.000000   0.000000   0.000000
   50  SI 1 YYX   0.000000   0.000000   0.000000   0.000000   0.000000
   51  SI 1 YYZ   0.000000   0.000000   0.000000   0.000000   0.000000
   52  SI 1 ZZX   0.000000   0.000000   0.000000   0.000000   0.000000
   53  SI 1 ZZY   0.000000   0.000000   0.000000   0.000000   0.000000
   54  SI 1 XYZ   0.000000   0.000000   0.000000   0.000000   0.000000
   55  SI 1XXXX   0.003704   0.000000   0.000000  -0.003505   0.000000
   56  SI 1YYYY   0.003704   0.000000   0.000000   0.003505   0.000000
   57  SI 1ZZZZ   0.009877   0.000000   0.000000   0.000000   0.000000
   58  SI 1XXXY   0.000000   0.000000   0.000000   0.000000  -0.002649
   59  SI 1XXXZ   0.000000   0.000000  -0.008049   0.000000   0.000000
   60  SI 1YYYX   0.000000   0.000000   0.000000   0.000000  -0.002649
   61  SI 1YYYZ   0.000000  -0.008049   0.000000   0.000000   0.000000
   62  SI 1ZZZX   0.000000   0.000000   0.010732   0.000000   0.000000
   63  SI 1ZZZY   0.000000   0.010732   0.000000   0.000000   0.000000
   64  SI 1XXYY   0.002169   0.000000   0.000000   0.000000   0.000000
   65  SI 1XXZZ  -0.008675   0.000000   0.000000   0.006157   0.000000
   66  SI 1YYZZ  -0.008675   0.000000   0.000000  -0.006157   0.000000
   67  SI 1XXYZ   0.000000  -0.003600   0.000000   0.000000   0.000000
   68  SI 1YYXZ   0.000000   0.000000  -0.003600   0.000000   0.000000
   69  SI 1ZZXY   0.000000   0.000000   0.000000   0.000000   0.007109

                     51         52         53         54
                    5.1245     5.1343     5.1343     9.6837
                     A          A          A          A   
    1  SI 1  S    0.000000   0.000000   0.000000   7.858015
    2  SI 1  S    0.000000   0.000000   0.000000   1.548640
    3  SI 1  S    0.000000   0.000000   0.000000  -6.805852
    4  SI 1  S    0.000000   0.000000   0.000000  -2.574551
    5  SI 1  X    0.000000   0.771915   0.000000   0.000000
    6  SI 1  Y    0.000000   0.000000   0.771915   0.000000
    7  SI 1  Z    0.768595   0.000000   0.000000   0.000000
    8  SI 1  X    0.000000  -1.916164   0.000000   0.000000
    9  SI 1  Y    0.000000   0.000000  -1.916164   0.000000
   10  SI 1  Z   -1.915132   0.000000   0.000000   0.000000
   11  SI 1  X    0.000000   2.096966   0.000000   0.000000
   12  SI 1  Y    0.000000   0.000000   2.096966   0.000000
   13  SI 1  Z    2.091118   0.000000   0.000000   0.000000
   14  SI 1  X    0.000000  -1.616302   0.000000   0.000000
   15  SI 1  Y    0.000000   0.000000  -1.616302   0.000000
   16  SI 1  Z   -1.610065   0.000000   0.000000   0.000000
   17  SI 1 XX    0.000000   0.000000   0.000000  -0.000010
   18  SI 1 YY    0.000000   0.000000   0.000000  -0.000010
   19  SI 1 ZZ    0.000000   0.000000   0.000000   0.000019
   20  SI 1 XY    0.000000   0.000000   0.000000   0.000000
   21  SI 1 XZ    0.000000   0.000000   0.000000   0.000000
   22  SI 1 YZ    0.000000   0.000000   0.000000   0.000000
   23  SI 1 XX    0.000000   0.000000   0.000000  -0.000031
   24  SI 1 YY    0.000000   0.000000   0.000000  -0.000031
   25  SI 1 ZZ    0.000000   0.000000   0.000000   0.000063
   26  SI 1 XY    0.000000   0.000000   0.000000   0.000000
   27  SI 1 XZ    0.000000   0.000000   0.000000   0.000000
   28  SI 1 YZ    0.000000   0.000000   0.000000   0.000000
   29  SI 1 XX    0.000000   0.000000   0.000000  -0.000112
   30  SI 1 YY    0.000000   0.000000   0.000000  -0.000112
   31  SI 1 ZZ    0.000000   0.000000   0.000000   0.000224
   32  SI 1 XY    0.000000   0.000000   0.000000   0.000000
   33  SI 1 XZ    0.000000   0.000000   0.000000   0.000000
   34  SI 1 YZ    0.000000   0.000000   0.000000   0.000000
   35  SI 1 XXX   0.000000   0.000873   0.000000   0.000000
   36  SI 1 YYY   0.000000   0.000000   0.000873   0.000000
   37  SI 1 ZZZ  -0.001748   0.000000   0.000000   0.000000
   38  SI 1 XXY   0.000000   0.000000   0.000390   0.000000
   39  SI 1 XXZ   0.001172   0.000000   0.000000   0.000000
   40  SI 1 YYX   0.000000   0.000390   0.000000   0.000000
   41  SI 1 YYZ   0.001172   0.000000   0.000000   0.000000
   42  SI 1 ZZX   0.000000  -0.001561   0.000000   0.000000
   43  SI 1 ZZY   0.000000   0.000000  -0.001561   0.000000
   44  SI 1 XYZ   0.000000   0.000000   0.000000   0.000000
   45  SI 1 XXX   0.000000  -0.000815   0.000000   0.000000
   46  SI 1 YYY   0.000000   0.000000  -0.000815   0.000000
   47  SI 1 ZZZ   0.001627   0.000000   0.000000   0.000000
   48  SI 1 XXY   0.000000   0.000000  -0.000364   0.000000
   49  SI 1 XXZ  -0.001091   0.000000   0.000000   0.000000
   50  SI 1 YYX   0.000000  -0.000364   0.000000   0.000000
   51  SI 1 YYZ  -0.001091   0.000000   0.000000   0.000000
   52  SI 1 ZZX   0.000000   0.001458   0.000000   0.000000
   53  SI 1 ZZY   0.000000   0.000000   0.001458   0.000000
   54  SI 1 XYZ   0.000000   0.000000   0.000000   0.000000
   55  SI 1XXXX   0.000000   0.000000   0.000000  -0.000000
   56  SI 1YYYY   0.000000   0.000000   0.000000  -0.000000
   57  SI 1ZZZZ   0.000000   0.000000   0.000000  -0.000000
   58  SI 1XXXY   0.000000   0.000000   0.000000   0.000000
   59  SI 1XXXZ   0.000000   0.000000   0.000000   0.000000
   60  SI 1YYYX   0.000000   0.000000   0.000000   0.000000
   61  SI 1YYYZ   0.000000   0.000000   0.000000   0.000000
   62  SI 1ZZZX   0.000000   0.000000   0.000000   0.000000
   63  SI 1ZZZY   0.000000   0.000000   0.000000   0.000000
   64  SI 1XXYY   0.000000   0.000000   0.000000  -0.000000
   65  SI 1XXZZ   0.000000   0.000000   0.000000   0.000000
   66  SI 1YYZZ   0.000000   0.000000   0.000000   0.000000
   67  SI 1XXYZ   0.000000   0.000000   0.000000   0.000000
   68  SI 1YYXZ   0.000000   0.000000   0.000000   0.000000
   69  SI 1ZZXY   0.000000   0.000000   0.000000   0.000000
 ...... END OF ROHF CALCULATION ......
 STEP CPU TIME =     0.30 TOTAL CPU TIME =        1.2 (    0.0 MIN)
 TOTAL WALL CLOCK TIME=        2.0 SECONDS, CPU UTILIZATION IS  57.84%

     ----------------------------------------------------------------
     PROPERTY VALUES FOR THE ROHF  SELF-CONSISTENT FIELD WAVEFUNCTION
     ----------------------------------------------------------------

          -----------------
          ENERGY COMPONENTS
          -----------------

         WAVEFUNCTION NORMALIZATION =       1.0000000000

                ONE ELECTRON ENERGY =      -5.6679842313
                TWO ELECTRON ENERGY =       1.9954369814
           NUCLEAR REPULSION ENERGY =       0.0000000000
                                      ------------------
                       TOTAL ENERGY =      -3.6725472499

 ELECTRON-ELECTRON POTENTIAL ENERGY =       1.9954369814
  NUCLEUS-ELECTRON POTENTIAL ENERGY =      -6.9969294826
   NUCLEUS-NUCLEUS POTENTIAL ENERGY =       0.0000000000
                                      ------------------
             TOTAL POTENTIAL ENERGY =      -5.0014925012
               TOTAL KINETIC ENERGY =       1.3289452513
                 VIRIAL RATIO (V/T) =       3.7635053033

          ---------------------------------------
          MULLIKEN AND LOWDIN POPULATION ANALYSES
          ---------------------------------------

     ATOMIC MULLIKEN POPULATION IN EACH MOLECULAR ORBITAL

                      1          2          3

                  2.000000   1.000000   1.000000

    1             2.000000   1.000000   1.000000

          MULLIKEN SPHERICAL HARMONIC POPULATIONS
       ATOM           S       P       D      F      G      H      I    TOTAL
    1 SI            1.00    2.00    0.00   0.00   0.00   0.00   0.00    3.00

          MULLIKEN SPHERICAL HARMONIC POPULATIONS
       ATOM           S       P       D      F      G      H      I    TOTAL
    1 SI            1.00    0.00    0.00   0.00   0.00   0.00   0.00    1.00

     ATOMIC SPIN POPULATION (ALPHA MINUS BETA)
       ATOM         MULL.POP.                    LOW.POP.
    1 SI            2.000000                     2.000000

               ----- POPULATIONS IN EACH AO -----
                             MULLIKEN      LOWDIN
              1  SI 1  S      2.00009     0.27514
              2  SI 1  S     -0.00001     0.07092
              3  SI 1  S      0.00024     0.18360
              4  SI 1  S     -0.00043     0.21348
              5  SI 1  X      1.00015     0.33059
              6  SI 1  Y      1.00015     0.33059
              7  SI 1  Z      0.00000     0.00000
              8  SI 1  X      0.00001     0.01383
              9  SI 1  Y      0.00001     0.01383
             10  SI 1  Z      0.00000     0.00000
             11  SI 1  X     -0.00003     0.06625
             12  SI 1  Y     -0.00003     0.06625
             13  SI 1  Z      0.00000     0.00000
             14  SI 1  X     -0.00012     0.13297
             15  SI 1  Y     -0.00012     0.13297
             16  SI 1  Z      0.00000     0.00000
             17  SI 1 XX      0.00000     0.06930
             18  SI 1 YY      0.00000     0.06930
             19  SI 1 ZZ      0.00000     0.06887
             20  SI 1 XY      0.00000     0.00000
             21  SI 1 XZ      0.00000     0.00000
             22  SI 1 YZ      0.00000     0.00000
             23  SI 1 XX     -0.00002     0.13197
             24  SI 1 YY      0.00000     0.13197
             25  SI 1 ZZ      0.00000     0.13052
             26  SI 1 XY      0.00000     0.00000
             27  SI 1 XZ      0.00000     0.00000
             28  SI 1 YZ      0.00000     0.00000
             29  SI 1 XX      0.00012     0.08451
             30  SI 1 YY      0.00000     0.08451
             31  SI 1 ZZ      0.00000     0.07766
             32  SI 1 XY      0.00000     0.00000
             33  SI 1 XZ      0.00000     0.00000
             34  SI 1 YZ      0.00000     0.00000
             35  SI 1 XXX     0.00000     0.08075
             36  SI 1 YYY     0.00000     0.08075
             37  SI 1 ZZZ     0.00000     0.00000
             38  SI 1 XXY     0.00000     0.03530
             39  SI 1 XXZ     0.00000     0.00000
             40  SI 1 YYX     0.00000     0.03530
             41  SI 1 YYZ     0.00000     0.00000
             42  SI 1 ZZX     0.00000     0.03533
             43  SI 1 ZZY     0.00000     0.03533
             44  SI 1 XYZ     0.00000     0.00000
             45  SI 1 XXX     0.00000     0.16401
             46  SI 1 YYY     0.00000     0.16401
             47  SI 1 ZZZ     0.00000     0.00000
             48  SI 1 XXY     0.00000     0.07047
             49  SI 1 XXZ     0.00000     0.00000
             50  SI 1 YYX     0.00000     0.07047
             51  SI 1 YYZ     0.00000     0.00000
             52  SI 1 ZZX     0.00000     0.07050
             53  SI 1 ZZY     0.00000     0.07050
             54  SI 1 XYZ     0.00000     0.00000
             55  SI 1XXXX     0.00000     0.06504
             56  SI 1YYYY     0.00000     0.06504
             57  SI 1ZZZZ     0.00000     0.06333
             58  SI 1XXXY     0.00000     0.00000
             59  SI 1XXXZ     0.00000     0.00000
             60  SI 1YYYX     0.00000     0.00000
             61  SI 1YYYZ     0.00000     0.00000
             62  SI 1ZZZX     0.00000     0.00000
             63  SI 1ZZZY     0.00000     0.00000
             64  SI 1XXYY     0.00000     0.07224
             65  SI 1XXZZ     0.00000     0.07129
             66  SI 1YYZZ     0.00000     0.07129
             67  SI 1XXYZ     0.00000     0.00000
             68  SI 1YYXZ     0.00000     0.00000
             69  SI 1ZZXY     0.00000     0.00000

          ----- MULLIKEN ATOMIC OVERLAP POPULATIONS -----
          (OFF-DIAGONAL ELEMENTS NEED TO BE MULTIPLIED BY 2)

             1

    1    4.0000000

          TOTAL MULLIKEN AND LOWDIN ATOMIC POPULATIONS
       ATOM         MULL.POP.    CHARGE          LOW.POP.     CHARGE
    1 SI            4.000000   -0.000000         4.000000   -0.000000

          MULLIKEN SPHERICAL HARMONIC POPULATIONS
       ATOM           S       P       D      F      G      H      I    TOTAL
    1 SI            2.00    2.00    0.00   0.00   0.00   0.00   0.00    4.00

          -------------------------------
          BOND ORDER AND VALENCE ANALYSIS     BOND ORDER THRESHOLD=0.050
          -------------------------------

                   BOND                       BOND                       BOND
  ATOM PAIR DIST  ORDER      ATOM PAIR DIST  ORDER      ATOM PAIR DIST  ORDER

                       TOTAL       BONDED        FREE
      ATOM            VALENCE     VALENCE     VALENCE
    1 SI                2.000       0.000       2.000

          -----------------------------------------
          ATOMIC SPIN DENSITY AT THE NUCLEUS (A.U.)
          -----------------------------------------
                            SPIN DENS    ALPHA DENS     BETA DENS
    1  SI           4.0     0.0000000       0.00021       0.00021

          ---------------------
          ELECTROSTATIC MOMENTS
          ---------------------

 POINT   1           X           Y           Z (BOHR)    CHARGE
                 0.000000    0.000000    0.000000       -0.00 (A.U.)
         DX          DY          DZ         /D/  (DEBYE)
     0.000000    0.000000    0.000000    0.000000
 ...... END OF PROPERTY EVALUATION ......
 STEP CPU TIME =     0.06 TOTAL CPU TIME =        1.2 (    0.0 MIN)
 TOTAL WALL CLOCK TIME=        2.1 SECONDS, CPU UTILIZATION IS  58.22%
                809342  WORDS OF DYNAMIC MEMORY USED
 EXECUTION OF GAMESS TERMINATED NORMALLY Fri Sep 28 23:11:17 2018
 DDI: 263624 bytes (0.3 MB / 0 MWords) used by master data server.

 ----------------------------------------
 CPU timing information for all processes
 ========================================
 0: 0.932 + 0.349 = 1.281
 ----------------------------------------
 ddikick.x: exited gracefully.
----- accounting info -----
Files used on the master node c412-082.stampede2.tacc.utexas.edu were:
-rw------- 1 aannabe G-801537    1536 Sep 28 23:11 /tmp/Si.F05
-rw------- 1 aannabe G-801537 4680416 Sep 28 23:11 /tmp/Si.F08
-rw------- 1 aannabe G-801537 7787360 Sep 28 23:11 /tmp/Si.F10
Fri Sep 28 23:11:21 CDT 2018
1.189u 0.726s 0:07.38 25.7%	0+0k 6520+56io 33pf+0w
