
 Primary working directories    : /global/cscratch1/sd/aannabe
 Secondary working directories  : /global/cscratch1/sd/aannabe
 Wavefunction directory         : /global/homes/a/aannabe/wfu/
 Main file repository           : /global/cscratch1/sd/aannabe/

 SHA1      : 2873118e99aab1bc19f5b6fc1784693c06d15c95
 NAME      : 2015.1.8
 ARCHNAME  : linux/x86_64
 FC        : /opt/cray/pe/craype/2.5.5/bin/ftn
 BLASLIB   : -Wl,-_start-group /opt/intel/compilers_and_libraries_2016.3.210/linux/mkl/lib/intel64/libmkl_intel_ilp64.a /opt/intel/compilers_and_libraries_2016.3.210/linux/mkl/lib/intel64/libmkl_intel_thread.a /opt/intel/compilers_and_libraries_2016.3.210/linux/mkl/lib/intel64/libmkl_core.a -Wl,-_end-group
 id        : lbl

 Nodes     nprocs
 nid00477     1

 Using customized tuning parameters: mindgm=8; mindgv=16; mindgc=4; mindgr=1; noblas=0; minvec=7
 default implementation of scratch files=df  

 ***,Fe
 memory,512,m
 gthresh,twoint=1.e-12
 
 gprint,basis,orbitals
 gexpec,ekin,pot
 
 angstrom
 geometry={
 1                                                                               ! Number of atoms
 Fe 0.0 0.0 0.0
 }
 
 basis={
 Including file /global/homes/a/aannabe/docs/accurate/ccECP_Kh/pps/Fe.pp
                                              !include,/global/homes/a/aannabe/docs/accurate/ccECP_Kh/basis/aug-cc-pVnZ/Fe_5z.basis
 Including file /global/homes/a/aannabe/docs/accurate/ccECP_Kh/basis/cc-pVnZ/Fe_5z.basis
 }
 
 {rhf
  start,atden
  print,orbitals=2
  wf,16,1,4
  occ,4,1,1,1,1,1,1,0
  open,4.1,1.4,1.6,1.7
  sym,1,1,1,3
  orbital,4202.2
 }
 pop
 {multi
  start,4202.2
  occ,4,1,1,1,1,1,1,0
  closed,2,1,1,0,1,0,0
  wf,16,1,4;state,2
  wf,16,4,4;state,1
  wf,16,6,4;state,1
  wf,16,7,4;state,1
  natorb,ci,print
  orbital,5202.2
 }
 {rhf,nitord=1,maxit=0
  start,5202.2
  wf,16,1,4
  occ,4,1,1,1,1,1,1,0
  open,4.1,1.4,1.6,1.7
 }
 
 scf(i)=energy
 
 _CC_NORM_MAX=2.0
 {uccsd(t)
 maxit,100
 core
 }
 posthf(i)=energy
 
 table,scf,posthf,ekin,pot
 save,5.csv,new
 
 

 Variables initialized (889), CPU time= 0.01 sec
 Commands  initialized (702), CPU time= 0.00 sec, 572 directives.
 Default parameters read. Elapsed time= 0.28 sec

 Checking input...
 Passed
1


                                         ***  PROGRAM SYSTEM MOLPRO  ***
                                       Copyright, TTI GmbH Stuttgart, 2015
                                    Version 2015.1 linked Sep  7 2016 23:09:38


 **********************************************************************************************************************************
 LABEL *   Fe                                                                            
  64 bit serial version                                                                  DATE: 13-Nov-18          TIME: 22:24:00  
 **********************************************************************************************************************************

 SHA1:             2873118e99aab1bc19f5b6fc1784693c06d15c95
 **********************************************************************************************************************************

 THRESHOLDS:

 ZERO    =  1.00D-12  ONEINT  =  1.00D-12  TWOINT  =  1.00D-12  PREFAC  =  1.00D-14  LOCALI  =  1.00D-09  EORDER  =  1.00D-04
 ENERGY  =  0.00D+00  ETEST   =  0.00D+00  EDENS   =  0.00D+00  THRDEDEF=  1.00D-06  GRADIENT=  1.00D-02  STEP    =  1.00D-03
 ORBITAL =  1.00D-05  CIVEC   =  1.00D-05  COEFF   =  1.00D-04  PRINTCI =  5.00D-02  PUNCHCI =  9.90D+01  OPTGRAD =  3.00D-04
 OPTENERG=  1.00D-06  OPTSTEP =  3.00D-04  THRGRAD =  1.00D-10  COMPRESS=  1.00D-11  VARMIN  =  1.00D-07  VARMAX  =  1.00D-03
 THRDOUB =  0.00D+00  THRDIV  =  1.00D-05  THRRED  =  1.00D-07  THRPSP  =  1.00D+00  THRDC   =  1.00D-10  THRCS   =  1.00D-10
 THRNRM  =  1.00D-08  THREQ   =  0.00D+00  THRDE   =  1.00D+00  THRREF  =  1.00D-05  SPARFAC =  1.00D+00  THRDLP  =  1.00D-07
 THRDIA  =  1.00D-10  THRDLS  =  1.00D-07  THRGPS  =  0.00D+00  THRKEX  =  0.00D+00  THRDIS  =  2.00D-01  THRVAR  =  1.00D-10
 THRLOC  =  1.00D-06  THRGAP  =  1.00D-06  THRLOCT = -1.00D+00  THRGAPT = -1.00D+00  THRORB  =  1.00D-06  THRMLTP =  0.00D+00
 THRCPQCI=  1.00D-10  KEXTA   =  0.00D+00  THRCOARS=  0.00D+00  SYMTOL  =  1.00D-06  GRADTOL =  1.00D-06  THROVL  =  1.00D-08
 THRORTH =  1.00D-08  GRID    =  1.00D-06  GRIDMAX =  1.00D-03  DTMAX   =  0.00D+00  THROCCDE=  1.00D-01  THROCCDE=  1.00D-01



 ZUNIT=ANG
 

Geometry recognized as XYZ


 Variable memory set to  512000000 words,  buffer space   230000 words

 SETTING BASIS          =    USERDEF


 Recomputing integrals since basis changed


 Using spherical harmonics



 PROGRAM * SEWARD (Integral evaluation for generally contracted gaussian basis sets)     Author: Roland Lindh, 1990

 Geometry written to block  1 of record 700

 Orientation using atomic masses  
 Molecule type: Atom
 Symmetry elements: X,Y,Z
 Rotational constants:       0.0000000      0.0000000      0.0000000 GHz  (calculated with average atomic masses)

 Point group  D2h 



 ATOMIC COORDINATES

 NR  ATOM    CHARGE       X              Y              Z

   1  FE     16.00    0.000000000    0.000000000    0.000000000


          FE  CORE POTENTIAL

          d POTENTIAL

 POWERS             1              3              2              2
 EXPONENTIALS   23.22092       23.54715       23.47256       9.852388    
 COEFFICIENTS   16.00000       371.5347      -181.2260      -2.373052    

          s - d POTENTIAL

 POWERS             2              2
 EXPONENTIALS   22.21063       9.515158    
 COEFFICIENTS   277.5003       46.20496    

          p - d POTENTIAL

 POWERS             2              2
 EXPONENTIALS   24.57001       8.866488    
 COEFFICIENTS   194.9988       31.67945    


 BASIS DATA

   Nr Sym  Nuc  Type         Exponents   Contraction coefficients

    1.1 Ag    1  1s          84.322332     0.000785   -0.000162    0.000002    0.000012    0.003301   -0.001298
                                           0.000000
    2.1 Ag                   44.203528    -0.012781    0.002921    0.004103    0.007598   -0.029197   -0.005538
                                           0.000000
    3.1 Ag                   23.288963     0.104635   -0.025466   -0.046840   -0.094133    0.213227    0.184080
                                           0.000000
    4.1 Ag                   13.385163    -0.119385    0.031182    0.052833    0.127655   -0.408109   -0.339165
                                           0.000000
    5.1 Ag                    7.518052    -0.339804    0.086849    0.218094    0.435598   -0.385651   -1.460839
                                           0.000000
    6.1 Ag                    4.101835    -0.049994    0.006846   -0.044999   -0.147911    0.168093    3.382303
                                           0.000000
    7.1 Ag                    2.253571     0.476955   -0.131856   -0.287386   -1.084477    3.102529    0.843277
                                           0.000000
                              1.134924     0.593222   -0.227746   -0.713220   -0.887003   -3.360446   -7.017371
                                           0.000000
                              0.561550     0.200151   -0.173079    0.249174    2.449946   -0.531619    7.291372
                                           0.000000
                              0.201961     0.008591    0.136142    1.299872    0.167976    4.493981   -4.246680
                                           0.000000
                              0.108698    -0.002188    0.434013    0.192119   -2.114668   -3.689750    0.089576
                                           0.000000
                              0.053619     0.000677    0.477555   -0.658616    0.452579   -0.510604    3.226924
                                           0.000000
                              0.025823    -0.000144    0.128804   -0.521047    0.801444    1.301021   -1.929719
                                           1.000000
    8.1 Ag    1  1s           3.373881     1.000000
    9.1 Ag    1  1s           3.436892     1.000000
   10.1 Ag    1  3d0        152.736742     0.000029
                             50.772485     0.005238
                             26.253589     0.029325
                             12.137022     0.074901
                              5.853719     0.163411
                              2.856224     0.251057
                              1.386132     0.287603
                              0.670802     0.251862
                              0.330280     0.186736
                              0.170907     0.093570
                              0.086794     0.073811
   11.1 Ag    1  3d2+       152.736742     0.000029
                             50.772485     0.005238
                             26.253589     0.029325
                             12.137022     0.074901
                              5.853719     0.163411
                              2.856224     0.251057
                              1.386132     0.287603
                              0.670802     0.251862
                              0.330280     0.186736
                              0.170907     0.093570
                              0.086794     0.073811
   12.1 Ag    1  3d0        152.736742    -0.000026
                             50.772485    -0.006329
                             26.253589    -0.034398
                             12.137022    -0.091765
                              5.853719    -0.201592
                              2.856224    -0.283930
                              1.386132    -0.161981
                              0.670802     0.128822
                              0.330280     0.360160
                              0.170907     0.277592
                              0.086794     0.261403
   13.1 Ag    1  3d2+       152.736742    -0.000026
                             50.772485    -0.006329
                             26.253589    -0.034398
                             12.137022    -0.091765
                              5.853719    -0.201592
                              2.856224    -0.283930
                              1.386132    -0.161981
                              0.670802     0.128822
                              0.330280     0.360160
                              0.170907     0.277592
                              0.086794     0.261403
   14.1 Ag    1  3d0        152.736742     0.000051
                             50.772485     0.008769
                             26.253589     0.047921
                             12.137022     0.132475
                              5.853719     0.297279
                              2.856224     0.275018
                              1.386132    -0.222842
                              0.670802    -0.619067
                              0.330280    -0.076290
                              0.170907     0.256056
                              0.086794     0.541482
   15.1 Ag    1  3d2+       152.736742     0.000051
                             50.772485     0.008769
                             26.253589     0.047921
                             12.137022     0.132475
                              5.853719     0.297279
                              2.856224     0.275018
                              1.386132    -0.222842
                              0.670802    -0.619067
                              0.330280    -0.076290
                              0.170907     0.256056
                              0.086794     0.541482
   16.1 Ag    1  3d0        152.736742    -0.000096
                             50.772485    -0.012144
                             26.253589    -0.066971
                             12.137022    -0.196025
                              5.853719    -0.469003
                              2.856224     0.046560
                              1.386132     0.985940
                              0.670802    -0.220435
                              0.330280    -0.752482
                              0.170907    -0.111123
                              0.086794     0.753100
   17.1 Ag    1  3d2+       152.736742    -0.000096
                             50.772485    -0.012144
                             26.253589    -0.066971
                             12.137022    -0.196025
                              5.853719    -0.469003
                              2.856224     0.046560
                              1.386132     0.985940
                              0.670802    -0.220435
                              0.330280    -0.752482
                              0.170907    -0.111123
                              0.086794     0.753100
   18.1 Ag    1  3d0        152.736742    -0.000032
                             50.772485    -0.016411
                             26.253589    -0.081036
                             12.137022    -0.292641
                              5.853719    -0.575819
                              2.856224     1.151156
                              1.386132     0.168963
                              0.670802    -1.489545
                              0.330280     0.741536
                              0.170907     0.979279
                              0.086794    -1.044905
   19.1 Ag    1  3d2+       152.736742    -0.000032
                             50.772485    -0.016411
                             26.253589    -0.081036
                             12.137022    -0.292641
                              5.853719    -0.575819
                              2.856224     1.151156
                              1.386132     0.168963
                              0.670802    -1.489545
                              0.330280     0.741536
                              0.170907     0.979279
                              0.086794    -1.044905
   20.1 Ag    1  3d0        152.736742     0.000000
                             50.772485     0.000000
                             26.253589     0.000000
                             12.137022     0.000000
                              5.853719     0.000000
                              2.856224     0.000000
                              1.386132     0.000000
                              0.670802     0.000000
                              0.330280     0.000000
                              0.170907     0.000000
                              0.086794     1.000000
   21.1 Ag    1  3d2+       152.736742     0.000000
                             50.772485     0.000000
                             26.253589     0.000000
                             12.137022     0.000000
                              5.853719     0.000000
                              2.856224     0.000000
                              1.386132     0.000000
                              0.670802     0.000000
                              0.330280     0.000000
                              0.170907     0.000000
                              0.086794     1.000000
   22.1 Ag    1  3d0          5.413499     1.000000
   23.1 Ag    1  3d2+         5.413499     1.000000
   24.1 Ag    1  3d0          5.581935     1.000000
   25.1 Ag    1  3d2+         5.581935     1.000000
   26.1 Ag    1  5g0          0.673444     1.000000
   27.1 Ag    1  5g4+         0.673444     1.000000
   28.1 Ag    1  5g2+         0.673444     1.000000
   29.1 Ag    1  5g0          1.991550     1.000000
   30.1 Ag    1  5g4+         1.991550     1.000000
   31.1 Ag    1  5g2+         1.991550     1.000000
   32.1 Ag    1  5g0          5.889532     1.000000
   33.1 Ag    1  5g4+         5.889532     1.000000
   34.1 Ag    1  5g2+         5.889532     1.000000
   35.1 Ag    1  5g0          4.726458     1.000000
   36.1 Ag    1  5g4+         4.726458     1.000000
   37.1 Ag    1  5g2+         4.726458     1.000000
   38.1 Ag    1  7i6+         3.182222     1.000000
   39.1 Ag    1  7i4+         3.182222     1.000000
   40.1 Ag    1  7i2+         3.182222     1.000000
   41.1 Ag    1  7i0          3.182222     1.000000
   42.1 Ag    1  7i6+         7.110853     1.000000
   43.1 Ag    1  7i4+         7.110853     1.000000
   44.1 Ag    1  7i2+         7.110853     1.000000
   45.1 Ag    1  7i0          7.110853     1.000000
    1.2 B3u   1  2px        125.092775     0.000056    0.000025   -0.000197    0.000264   -0.000084   -0.002544
                                           0.000000
    2.2 B3u                  65.211589    -0.000572   -0.000070    0.001251   -0.001076    0.000768    0.013040
                                           0.000000
    3.2 B3u                  34.437599     0.007388   -0.001042   -0.009154   -0.002591   -0.009485   -0.039444
                                           0.000000
    4.2 B3u                  18.930704    -0.028481    0.005127    0.038201    0.035519    0.088062   -0.024594
                                           0.000000
    5.2 B3u                  10.873415    -0.063005    0.018404    0.043097    0.119554    0.156191   -0.521571
                                           0.000000
    6.2 B3u                   6.012172     0.024855   -0.014692   -0.029475   -0.204714   -0.619166    2.739993
                                           0.000000
    7.2 B3u                   3.372205     0.277474   -0.061307   -0.426996   -0.760627   -1.385534   -1.742649
                                           0.000000
                              1.768641     0.425386   -0.128638   -0.394840   -0.262740    2.492125   -2.844006
                                           0.000000
                              0.914516     0.314145   -0.070637    0.077230    1.779030    0.008076    5.870826
                                           0.000000
                              0.460895     0.090422   -0.016314    1.119881   -0.462742   -2.499515   -4.902306
                                           0.000000
                              0.204490     0.006977    0.380702   -0.066494   -1.241030    2.265576    2.136176
                                           0.000000
                              0.074741     0.001154    0.523071   -0.721583    0.940987   -0.748342   -0.121626
                                           0.000000
                              0.035671     0.000303    0.235765   -0.005695    0.083496   -0.211598   -0.486219
                                           1.000000
    8.2 B3u   1  2px          3.524160     1.000000
    9.2 B3u   1  2px          8.838502     1.000000
   10.2 B3u   1  4f1+         0.334367     1.000000
   11.2 B3u   1  4f3+         0.334367     1.000000
   12.2 B3u   1  4f1+         0.965650     1.000000
   13.2 B3u   1  4f3+         0.965650     1.000000
   14.2 B3u   1  4f1+         2.788793     1.000000
   15.2 B3u   1  4f3+         2.788793     1.000000
   16.2 B3u   1  4f1+         8.054020     1.000000
   17.2 B3u   1  4f3+         8.054020     1.000000
   18.2 B3u   1  4f1+         4.252984     1.000000
   19.2 B3u   1  4f3+         4.252984     1.000000
   20.2 B3u   1  6h1+         1.344807     1.000000
   21.2 B3u   1  6h3+         1.344807     1.000000
   22.2 B3u   1  6h5+         1.344807     1.000000
   23.2 B3u   1  6h1+         4.359371     1.000000
   24.2 B3u   1  6h3+         4.359371     1.000000
   25.2 B3u   1  6h5+         4.359371     1.000000
   26.2 B3u   1  6h1+         7.008543     1.000000
   27.2 B3u   1  6h3+         7.008543     1.000000
   28.2 B3u   1  6h5+         7.008543     1.000000
    1.3 B2u   1  2py        125.092775     0.000056    0.000025   -0.000197    0.000264   -0.000084   -0.002544
                                           0.000000
    2.3 B2u                  65.211589    -0.000572   -0.000070    0.001251   -0.001076    0.000768    0.013040
                                           0.000000
    3.3 B2u                  34.437599     0.007388   -0.001042   -0.009154   -0.002591   -0.009485   -0.039444
                                           0.000000
    4.3 B2u                  18.930704    -0.028481    0.005127    0.038201    0.035519    0.088062   -0.024594
                                           0.000000
    5.3 B2u                  10.873415    -0.063005    0.018404    0.043097    0.119554    0.156191   -0.521571
                                           0.000000
    6.3 B2u                   6.012172     0.024855   -0.014692   -0.029475   -0.204714   -0.619166    2.739993
                                           0.000000
    7.3 B2u                   3.372205     0.277474   -0.061307   -0.426996   -0.760627   -1.385534   -1.742649
                                           0.000000
                              1.768641     0.425386   -0.128638   -0.394840   -0.262740    2.492125   -2.844006
                                           0.000000
                              0.914516     0.314145   -0.070637    0.077230    1.779030    0.008076    5.870826
                                           0.000000
                              0.460895     0.090422   -0.016314    1.119881   -0.462742   -2.499515   -4.902306
                                           0.000000
                              0.204490     0.006977    0.380702   -0.066494   -1.241030    2.265576    2.136176
                                           0.000000
                              0.074741     0.001154    0.523071   -0.721583    0.940987   -0.748342   -0.121626
                                           0.000000
                              0.035671     0.000303    0.235765   -0.005695    0.083496   -0.211598   -0.486219
                                           1.000000
    8.3 B2u   1  2py          3.524160     1.000000
    9.3 B2u   1  2py          8.838502     1.000000
   10.3 B2u   1  4f1-         0.334367     1.000000
   11.3 B2u   1  4f3-         0.334367     1.000000
   12.3 B2u   1  4f1-         0.965650     1.000000
   13.3 B2u   1  4f3-         0.965650     1.000000
   14.3 B2u   1  4f1-         2.788793     1.000000
   15.3 B2u   1  4f3-         2.788793     1.000000
   16.3 B2u   1  4f1-         8.054020     1.000000
   17.3 B2u   1  4f3-         8.054020     1.000000
   18.3 B2u   1  4f1-         4.252984     1.000000
   19.3 B2u   1  4f3-         4.252984     1.000000
   20.3 B2u   1  6h1-         1.344807     1.000000
   21.3 B2u   1  6h3-         1.344807     1.000000
   22.3 B2u   1  6h5-         1.344807     1.000000
   23.3 B2u   1  6h1-         4.359371     1.000000
   24.3 B2u   1  6h3-         4.359371     1.000000
   25.3 B2u   1  6h5-         4.359371     1.000000
   26.3 B2u   1  6h1-         7.008543     1.000000
   27.3 B2u   1  6h3-         7.008543     1.000000
   28.3 B2u   1  6h5-         7.008543     1.000000
    1.4 B1g   1  3d2-       152.736742     0.000029   -0.000026    0.000051   -0.000096   -0.000032    0.000000
    2.4 B1g                  50.772485     0.005238   -0.006329    0.008769   -0.012144   -0.016411    0.000000
    3.4 B1g                  26.253589     0.029325   -0.034398    0.047921   -0.066971   -0.081036    0.000000
    4.4 B1g                  12.137022     0.074901   -0.091765    0.132475   -0.196025   -0.292641    0.000000
    5.4 B1g                   5.853719     0.163411   -0.201592    0.297279   -0.469003   -0.575819    0.000000
    6.4 B1g                   2.856224     0.251057   -0.283930    0.275018    0.046560    1.151156    0.000000
                              1.386132     0.287603   -0.161981   -0.222842    0.985940    0.168963    0.000000
                              0.670802     0.251862    0.128822   -0.619067   -0.220435   -1.489545    0.000000
                              0.330280     0.186736    0.360160   -0.076290   -0.752482    0.741536    0.000000
                              0.170907     0.093570    0.277592    0.256056   -0.111123    0.979279    0.000000
                              0.086794     0.073811    0.261403    0.541482    0.753100   -1.044905    1.000000
    7.4 B1g   1  3d2-         5.413499     1.000000
    8.4 B1g   1  3d2-         5.581935     1.000000
    9.4 B1g   1  5g2-         0.673444     1.000000
   10.4 B1g   1  5g4-         0.673444     1.000000
   11.4 B1g   1  5g2-         1.991550     1.000000
   12.4 B1g   1  5g4-         1.991550     1.000000
   13.4 B1g   1  5g2-         5.889532     1.000000
   14.4 B1g   1  5g4-         5.889532     1.000000
   15.4 B1g   1  5g2-         4.726458     1.000000
   16.4 B1g   1  5g4-         4.726458     1.000000
   17.4 B1g   1  7i2-         3.182222     1.000000
   18.4 B1g   1  7i6-         3.182222     1.000000
   19.4 B1g   1  7i4-         3.182222     1.000000
   20.4 B1g   1  7i2-         7.110853     1.000000
   21.4 B1g   1  7i6-         7.110853     1.000000
   22.4 B1g   1  7i4-         7.110853     1.000000
    1.5 B1u   1  2pz        125.092775     0.000056    0.000025   -0.000197    0.000264   -0.000084   -0.002544
                                           0.000000
    2.5 B1u                  65.211589    -0.000572   -0.000070    0.001251   -0.001076    0.000768    0.013040
                                           0.000000
    3.5 B1u                  34.437599     0.007388   -0.001042   -0.009154   -0.002591   -0.009485   -0.039444
                                           0.000000
    4.5 B1u                  18.930704    -0.028481    0.005127    0.038201    0.035519    0.088062   -0.024594
                                           0.000000
    5.5 B1u                  10.873415    -0.063005    0.018404    0.043097    0.119554    0.156191   -0.521571
                                           0.000000
    6.5 B1u                   6.012172     0.024855   -0.014692   -0.029475   -0.204714   -0.619166    2.739993
                                           0.000000
    7.5 B1u                   3.372205     0.277474   -0.061307   -0.426996   -0.760627   -1.385534   -1.742649
                                           0.000000
                              1.768641     0.425386   -0.128638   -0.394840   -0.262740    2.492125   -2.844006
                                           0.000000
                              0.914516     0.314145   -0.070637    0.077230    1.779030    0.008076    5.870826
                                           0.000000
                              0.460895     0.090422   -0.016314    1.119881   -0.462742   -2.499515   -4.902306
                                           0.000000
                              0.204490     0.006977    0.380702   -0.066494   -1.241030    2.265576    2.136176
                                           0.000000
                              0.074741     0.001154    0.523071   -0.721583    0.940987   -0.748342   -0.121626
                                           0.000000
                              0.035671     0.000303    0.235765   -0.005695    0.083496   -0.211598   -0.486219
                                           1.000000
    8.5 B1u   1  2pz          3.524160     1.000000
    9.5 B1u   1  2pz          8.838502     1.000000
   10.5 B1u   1  4f0          0.334367     1.000000
   11.5 B1u   1  4f2+         0.334367     1.000000
   12.5 B1u   1  4f0          0.965650     1.000000
   13.5 B1u   1  4f2+         0.965650     1.000000
   14.5 B1u   1  4f0          2.788793     1.000000
   15.5 B1u   1  4f2+         2.788793     1.000000
   16.5 B1u   1  4f0          8.054020     1.000000
   17.5 B1u   1  4f2+         8.054020     1.000000
   18.5 B1u   1  4f0          4.252984     1.000000
   19.5 B1u   1  4f2+         4.252984     1.000000
   20.5 B1u   1  6h2+         1.344807     1.000000
   21.5 B1u   1  6h4+         1.344807     1.000000
   22.5 B1u   1  6h0          1.344807     1.000000
   23.5 B1u   1  6h2+         4.359371     1.000000
   24.5 B1u   1  6h4+         4.359371     1.000000
   25.5 B1u   1  6h0          4.359371     1.000000
   26.5 B1u   1  6h2+         7.008543     1.000000
   27.5 B1u   1  6h4+         7.008543     1.000000
   28.5 B1u   1  6h0          7.008543     1.000000
    1.6 B2g   1  3d1+       152.736742     0.000029   -0.000026    0.000051   -0.000096   -0.000032    0.000000
    2.6 B2g                  50.772485     0.005238   -0.006329    0.008769   -0.012144   -0.016411    0.000000
    3.6 B2g                  26.253589     0.029325   -0.034398    0.047921   -0.066971   -0.081036    0.000000
    4.6 B2g                  12.137022     0.074901   -0.091765    0.132475   -0.196025   -0.292641    0.000000
    5.6 B2g                   5.853719     0.163411   -0.201592    0.297279   -0.469003   -0.575819    0.000000
    6.6 B2g                   2.856224     0.251057   -0.283930    0.275018    0.046560    1.151156    0.000000
                              1.386132     0.287603   -0.161981   -0.222842    0.985940    0.168963    0.000000
                              0.670802     0.251862    0.128822   -0.619067   -0.220435   -1.489545    0.000000
                              0.330280     0.186736    0.360160   -0.076290   -0.752482    0.741536    0.000000
                              0.170907     0.093570    0.277592    0.256056   -0.111123    0.979279    0.000000
                              0.086794     0.073811    0.261403    0.541482    0.753100   -1.044905    1.000000
    7.6 B2g   1  3d1+         5.413499     1.000000
    8.6 B2g   1  3d1+         5.581935     1.000000
    9.6 B2g   1  5g1+         0.673444     1.000000
   10.6 B2g   1  5g3+         0.673444     1.000000
   11.6 B2g   1  5g1+         1.991550     1.000000
   12.6 B2g   1  5g3+         1.991550     1.000000
   13.6 B2g   1  5g1+         5.889532     1.000000
   14.6 B2g   1  5g3+         5.889532     1.000000
   15.6 B2g   1  5g1+         4.726458     1.000000
   16.6 B2g   1  5g3+         4.726458     1.000000
   17.6 B2g   1  7i5+         3.182222     1.000000
   18.6 B2g   1  7i3+         3.182222     1.000000
   19.6 B2g   1  7i1+         3.182222     1.000000
   20.6 B2g   1  7i5+         7.110853     1.000000
   21.6 B2g   1  7i3+         7.110853     1.000000
   22.6 B2g   1  7i1+         7.110853     1.000000
    1.7 B3g   1  3d1-       152.736742     0.000029   -0.000026    0.000051   -0.000096   -0.000032    0.000000
    2.7 B3g                  50.772485     0.005238   -0.006329    0.008769   -0.012144   -0.016411    0.000000
    3.7 B3g                  26.253589     0.029325   -0.034398    0.047921   -0.066971   -0.081036    0.000000
    4.7 B3g                  12.137022     0.074901   -0.091765    0.132475   -0.196025   -0.292641    0.000000
    5.7 B3g                   5.853719     0.163411   -0.201592    0.297279   -0.469003   -0.575819    0.000000
    6.7 B3g                   2.856224     0.251057   -0.283930    0.275018    0.046560    1.151156    0.000000
                              1.386132     0.287603   -0.161981   -0.222842    0.985940    0.168963    0.000000
                              0.670802     0.251862    0.128822   -0.619067   -0.220435   -1.489545    0.000000
                              0.330280     0.186736    0.360160   -0.076290   -0.752482    0.741536    0.000000
                              0.170907     0.093570    0.277592    0.256056   -0.111123    0.979279    0.000000
                              0.086794     0.073811    0.261403    0.541482    0.753100   -1.044905    1.000000
    7.7 B3g   1  3d1-         5.413499     1.000000
    8.7 B3g   1  3d1-         5.581935     1.000000
    9.7 B3g   1  5g1-         0.673444     1.000000
   10.7 B3g   1  5g3-         0.673444     1.000000
   11.7 B3g   1  5g1-         1.991550     1.000000
   12.7 B3g   1  5g3-         1.991550     1.000000
   13.7 B3g   1  5g1-         5.889532     1.000000
   14.7 B3g   1  5g3-         5.889532     1.000000
   15.7 B3g   1  5g1-         4.726458     1.000000
   16.7 B3g   1  5g3-         4.726458     1.000000
   17.7 B3g   1  7i5-         3.182222     1.000000
   18.7 B3g   1  7i3-         3.182222     1.000000
   19.7 B3g   1  7i1-         3.182222     1.000000
   20.7 B3g   1  7i5-         7.110853     1.000000
   21.7 B3g   1  7i3-         7.110853     1.000000
   22.7 B3g   1  7i1-         7.110853     1.000000
    1.8 Au    1  4f2-         0.334367     1.000000
    2.8 Au    1  4f2-         0.965650     1.000000
    3.8 Au    1  4f2-         2.788793     1.000000
    4.8 Au    1  4f2-         8.054020     1.000000
    5.8 Au    1  4f2-         4.252984     1.000000
    6.8 Au    1  6h4-         1.344807     1.000000
    7.8 Au    1  6h2-         1.344807     1.000000
    8.8 Au    1  6h4-         4.359371     1.000000
    9.8 Au    1  6h2-         4.359371     1.000000
   10.8 Au    1  6h4-         7.008543     1.000000
   11.8 Au    1  6h2-         7.008543     1.000000

 NUCLEAR CHARGE:                   16
 NUMBER OF PRIMITIVE AOS:         367
 NUMBER OF SYMMETRY AOS:          255
 NUMBER OF CONTRACTIONS:          206   (  45Ag  +  28B3u +  28B2u +  22B1g +  28B1u +  22B2g +  22B3g +  11Au  )
 NUMBER OF CORE ORBITALS:           4   (   1Ag  +   1B3u +   1B2u +   0B1g +   1B1u +   0B2g +   0B3g +   0Au  )
 NUMBER OF VALENCE ORBITALS:        6   (   3Ag  +   0B3u +   0B2u +   1B1g +   0B1u +   1B2g +   1B3g +   0Au  )


 NUCLEAR REPULSION ENERGY    0.00000000

 EXTRA SYMMETRY OF AOS IN SYMMETRY 1:   1 1 1 1 1 1 1 1 1 2   3 2 3 2 3 2 3 2 3 2   3 2 3 2 3 4 5 6 4 5   6 4 5 6 4 5 6 7 8 9
                                       10 7 8 910
 EXTRA SYMMETRY OF AOS IN SYMMETRY 2:   1 1 1 1 1 1 1 1 1 2   3 2 3 2 3 2 3 2 3 4   5 6 4 5 6 4 5 6
 EXTRA SYMMETRY OF AOS IN SYMMETRY 3:   1 1 1 1 1 1 1 1 1 2   3 2 3 2 3 2 3 2 3 4   5 6 4 5 6 4 5 6
 EXTRA SYMMETRY OF AOS IN SYMMETRY 4:   1 1 1 1 1 1 1 1 2 3   2 3 2 3 2 3 4 5 6 4   5 6
 EXTRA SYMMETRY OF AOS IN SYMMETRY 5:   1 1 1 1 1 1 1 1 1 2   3 2 3 2 3 2 3 2 3 4   5 6 4 5 6 4 5 6
 EXTRA SYMMETRY OF AOS IN SYMMETRY 6:   1 1 1 1 1 1 1 1 2 3   2 3 2 3 2 3 4 5 6 4   5 6
 EXTRA SYMMETRY OF AOS IN SYMMETRY 7:   1 1 1 1 1 1 1 1 2 3   2 3 2 3 2 3 4 5 6 4   5 6
 EXTRA SYMMETRY OF AOS IN SYMMETRY 8:   1 1 1 1 1 2 3 2 3 2   3

 Eigenvalues of metric

         1 0.464E-06 0.253E-04 0.253E-04 0.800E-03 0.142E-02 0.142E-02 0.157E-01 0.157E-01
         2 0.400E-03 0.180E-01 0.180E-01 0.385E-01 0.111E+00 0.138E+00 0.138E+00 0.138E+00
         3 0.400E-03 0.180E-01 0.180E-01 0.385E-01 0.111E+00 0.138E+00 0.138E+00 0.138E+00
         4 0.253E-04 0.142E-02 0.157E-01 0.157E-01 0.242E-01 0.386E+00 0.386E+00 0.446E+00
         5 0.400E-03 0.180E-01 0.180E-01 0.385E-01 0.111E+00 0.138E+00 0.138E+00 0.138E+00
         6 0.253E-04 0.142E-02 0.157E-01 0.157E-01 0.242E-01 0.386E+00 0.386E+00 0.446E+00
         7 0.253E-04 0.142E-02 0.157E-01 0.157E-01 0.242E-01 0.386E+00 0.386E+00 0.446E+00
         8 0.180E-01 0.138E+00 0.138E+00 0.246E+00 0.568E+00 0.906E+00 0.906E+00 0.141E+01


 Contracted 2-electron integrals neglected if value below      1.0D-13
 AO integral compression algorithm  1   Integral accuracy      1.0D-13

     224.395 MB (compressed) written to integral file ( 62.5%)


 NUMBER OF SORTED TWO-ELECTRON INTEGRALS:   29098917.     BUFFER LENGTH:  32768
 NUMBER OF SEGMENTS:   2  SEGMENT LENGTH:   15999969      RECORD LENGTH: 524288

 Memory used in sort:      16.56 MW

 SORT1 READ    44856328. AND WROTE    18923661. INTEGRALS IN     55 RECORDS. CPU TIME:     1.57 SEC, REAL TIME:     2.09 SEC
 SORT2 READ    18923661. AND WROTE    29098917. INTEGRALS IN    856 RECORDS. CPU TIME:     0.84 SEC, REAL TIME:     1.47 SEC

 FILE SIZES:   FILE 1:   244.5 MBYTE,  FILE 4:   230.7 MBYTE,   TOTAL:    475.2 MBYTE

 OPERATOR DM      FOR CENTER  0  COORDINATES:    0.000000    0.000000    0.000000
 OPERATOR EKIN    FOR CENTER  0  COORDINATES:    0.000000    0.000000    0.000000
 OPERATOR POT     FOR CENTER  0  COORDINATES:    0.000000    0.000000    0.000000


 **********************************************************************************************************************************
 DATASETS  * FILE   NREC   LENGTH (MB)   RECORD NAMES
              1      20      162.81       500      610      700      900      950      970     1000      129      960     1100   
                                          VAR    BASINP    GEOM    SYMINP    ZMAT    AOBASIS   BASIS     P2S    ABASIS      S 
                                         1400     1410     1420     1200     1210     1080     1600     1650     1300     1700   
                                         EKIN       V       ECP      H0       H01     AOSYM     SMH    MOLCAS    ERIS     OPER   

 PROGRAMS   *        TOTAL       INT
 CPU TIMES  *        12.22     12.10
 REAL TIME  *        21.32 SEC
 DISK USED  *       475.55 MB      
 **********************************************************************************************************************************


 PROGRAM * RHF-SCF (OPEN SHELL)       Authors: W. Meyer, H.-J. Werner


 NUMBER OF ELECTRONS:      10+    6-    SPACE SYMMETRY=1    SPIN SYMMETRY: Quintet 
 CONVERGENCE THRESHOLDS:    1.00E-05 (Density)    1.00E-07 (Energy)
 MAX. NUMBER OF ITERATIONS:       60
 INTERPOLATION TYPE:            DIIS
 INTERPOLATION STEPS:              2 (START)      1 (STEP)
 LEVEL SHIFTS:                 -0.60 (CLOSED) -0.30 (OPEN) 


 Singly occupied orbitals:      4.1       1.4       1.6       1.7
 
 Extra symmetries of mos in symmetry 1:   1   1   3

   Atom=FE basis=ECP10MDF_GUESS    lmin=0  lmax=2

 Orbital guess generated from atomic densities. Full valence occupancy:    4   1   1   1   1   1   1   0


 Molecular orbital dump at record        4202.2

 ITERATION    DDIFF          GRAD             ENERGY        2-EL.EN.            DIPOLE MOMENTS         DIIS   ORB.
    1      0.000D+00      0.000D+00      -122.53245489    179.476449    0.00000    0.00000    0.00000    0    start
    2      0.000D+00      0.219D-01      -122.62564181    188.467483    0.00000    0.00000    0.00000    1    diag,B
    3      0.714D-02      0.151D-01      -122.64474846    186.540370    0.00000    0.00000    0.00000    2    diag,B
    4      0.180D-02      0.335D-02      -122.64703506    186.399348    0.00000    0.00000    0.00000    3    diag,B
    5      0.179D-02      0.635D-03      -122.64729515    186.387769    0.00000    0.00000    0.00000    4    diag,B
    6      0.641D-03      0.176D-03      -122.64733786    186.349670    0.00000    0.00000    0.00000    5    diag,B
    7      0.473D-03      0.756D-04      -122.64734938    186.325701    0.00000    0.00000    0.00000    6    fixocc
    8      0.796D-03      0.309D-04      -122.64735169    186.317422    0.00000    0.00000    0.00000    7    diag,B
    9      0.461D-03      0.125D-04      -122.64735212    186.314655    0.00000    0.00000    0.00000    8    diag,B
   10      0.310D-03      0.466D-05      -122.64735217    186.314378    0.00000    0.00000    0.00000    9    orth
   11      0.236D-03      0.127D-05      -122.64735217    186.314301    0.00000    0.00000    0.00000    9    diag,B
   12      0.249D-04      0.554D-06      -122.64735217    186.314332    0.00000    0.00000    0.00000    9    diag,B
   13      0.582D-05      0.322D-06      -122.64735217    186.314331    0.00000    0.00000    0.00000    0    orth

 Final alpha occupancy:   4   1   1   1   1   1   1   0
 Final beta  occupancy:   3   1   1   0   1   0   0   0

 !RHF STATE 1.1 Energy               -122.647352172026
 Nuclear energy                         0.00000000
 One-electron energy                 -215.80451784
 Two-electron energy                   93.15716567
 Virial quotient                       -1.70674691
 !RHF STATE 1.1 Dipole moment           0.00000000     0.00000000     0.00000000
 Dipole moment /Debye                   0.00000000     0.00000000     0.00000000
 

 !RHF expec          <1.1|EKIN|1.1>    71.860304305591
 
 !RHF expec           <1.1|POT|1.1>   -18.865463543035

 ELECTRON ORBITALS
 =================


   Orb  Occ    Energy  Couls-En    Coefficients

                                   1 1s      1 1s      1 1s      1 1s      1 1s      1 1s      1 1s      1 1s      1 1s      1 3d0  
                                   1 3d2+    1 3d0     1 3d2+    1 3d0     1 3d2+    1 3d0     1 3d2+    1 3d0     1 3d2+    1 3d0  
                                   1 3d2+    1 3d0     1 3d2+    1 3d0     1 3d2+    1 5g0     1 5g4+    1 5g2+    1 5g0     1 5g4+ 
                                   1 5g2+    1 5g0     1 5g4+    1 5g2+    1 5g0     1 5g4+    1 5g2+    1 7i6+    1 7i4+    1 7i2+ 
                                   1 7i0     1 7i6+    1 7i4+    1 7i2+    1 7i0  

   1.1   2    -4.2756  -21.5475  1.000180  0.000264 -0.000153  0.000016  0.000044 -0.000029 -0.000254 -0.008849  0.008740 -0.002412
                                -0.000099 -0.002624  0.000042  0.000118  0.000003  0.000352 -0.000003  0.000554 -0.000005  0.001045
                                -0.000009  0.001551 -0.000016 -0.001390  0.000015  0.000071  0.000516 -0.000003  0.000093  0.000594
                                -0.000004  0.000075  0.000457 -0.000003 -0.000052 -0.000321  0.000002  0.000000  0.000001 -0.000000
                                 0.000000  0.000000 -0.000000  0.000000 -0.000000

   2.1   2    -0.2616   -5.8719  0.000056  1.000064  0.000638 -0.000082  0.000008 -0.000004 -0.000296 -0.001040  0.001034  0.012688
                                 0.000059  0.011297 -0.000120  0.002486 -0.000028 -0.000262  0.000002  0.000018 -0.000000  0.000964
                                -0.000011 -0.000981  0.000011  0.000911 -0.000010  0.000035 -0.000116  0.000000  0.000033  0.000136
                                -0.000001 -0.000007 -0.000049  0.000000  0.000017  0.000086 -0.000001 -0.000000 -0.000001  0.000000
                                -0.000000 -0.000000  0.000000 -0.000000  0.000000

   3.1   2    -0.5440  -13.0397  0.000095  0.000005 -0.000001  0.000004  0.000000 -0.000001 -0.000007  0.000017 -0.000017 -0.005109
                                 1.006126  0.000353 -0.070170  0.000104 -0.020745  0.000010 -0.002008  0.000007 -0.001309  0.000122
                                -0.023938 -0.000043  0.008504  0.000044 -0.008650 -0.000011 -0.000017  0.001034 -0.000011 -0.000017
                                 0.001086 -0.000003 -0.000005  0.000330 -0.000001 -0.000001  0.000051 -0.000358  0.000002 -0.000046
                                 0.000001 -0.000083  0.000001 -0.000011  0.000000

   4.1   +    -0.7023  -13.4841  0.001647 -0.012346 -0.000638 -0.000681 -0.000097  0.000101  0.001057 -0.002650  0.002601  0.997332
                                 0.005064 -0.132007 -0.000668 -0.036574 -0.000186 -0.001327 -0.000007 -0.000446 -0.000002 -0.009520
                                -0.000048  0.005536  0.000027 -0.005085 -0.000025  0.002371  0.000897 -0.000005  0.002656  0.001369
                                -0.000003  0.000867  0.000388 -0.000001  0.000104  0.000136  0.000000 -0.000004 -0.000302  0.000003
                                -0.000108 -0.000001 -0.000080  0.000001 -0.000030

   5.1   0     0.0647   -2.3238 -0.982383 -4.830271  1.737937 -0.825394 -0.307766  0.098529  5.651964  4.847033 -4.935798 -0.001333
                                 0.000006 -0.007077  0.000081 -0.001394  0.000023  0.000026  0.000004  0.000118 -0.000003  0.000544
                                -0.000028 -0.001117  0.000024  0.001091 -0.000023  0.000071  0.000545 -0.000003  0.000005 -0.000004
                                -0.000000  0.000002 -0.000010  0.000000 -0.000013 -0.000076  0.000001 -0.000000  0.000000 -0.000000
                                 0.000000  0.000000 -0.000001  0.000000 -0.000000

   6.1   0     0.2349   -3.1390 -0.019429 -0.103393  0.048060 -0.022437 -0.009414  0.002965  0.108324  0.182438 -0.182967 -0.674262
                                -0.003765 -1.336801 -0.007438 -1.024833 -0.005701 -0.495795 -0.002757  0.194949  0.001084  2.857319
                                 0.015892 -1.491266 -0.008293  1.403625  0.007806  0.000481  0.000149 -0.000001 -0.000521 -0.000240
                                 0.000001 -0.000246 -0.000096  0.000000  0.000152  0.000029 -0.000000  0.000000  0.000033 -0.000000
                                 0.000012  0.000000  0.000015 -0.000000  0.000005

                                   1 2px     1 2px     1 2px     1 2px     1 2px     1 2px     1 2px     1 2px     1 2px     1 4f1+ 
                                   1 4f3+    1 4f1+    1 4f3+    1 4f1+    1 4f3+    1 4f1+    1 4f3+    1 4f1+    1 4f3+    1 6h1+ 
                                   1 6h3+    1 6h5+    1 6h1+    1 6h3+    1 6h5+    1 6h1+    1 6h3+    1 6h5+ 

   1.2   2    -2.7616  -18.4263  0.999526  0.016440  0.014552  0.000819 -0.000828  0.000173 -0.004262  0.001202 -0.000252 -0.000327
                                 0.001238  0.000653  0.003382  0.001416  0.002710  0.000172  0.000903 -0.000011 -0.000205 -0.000005
                                 0.000012 -0.000047 -0.000027  0.000034 -0.000206  0.000001 -0.000001  0.000009

   2.2   0     0.0367   -3.3078 -0.156973  0.046302  0.135601 -0.063197  0.054759  0.022837  1.068069  0.108414 -0.027517  0.002809
                                -0.000607 -0.000053 -0.000000 -0.000207  0.000216 -0.000047  0.000041 -0.000106  0.000012 -0.000018
                                 0.000023 -0.000162  0.000011 -0.000013  0.000089  0.000000 -0.000000 -0.000001

   3.2   0     0.1722   -3.4380  0.496406  2.177192 -0.720659  0.323778 -0.252278 -0.102714 -2.416437 -0.478620  0.119659  0.004300
                                -0.001062  0.000097 -0.000080 -0.000388  0.000344 -0.000089  0.000068 -0.000093 -0.000006 -0.000030
                                 0.000036 -0.000262  0.000017 -0.000019  0.000134  0.000000 -0.000000 -0.000001

                                   1 2py     1 2py     1 2py     1 2py     1 2py     1 2py     1 2py     1 2py     1 2py     1 4f1- 
                                   1 4f3-    1 4f1-    1 4f3-    1 4f1-    1 4f3-    1 4f1-    1 4f3-    1 4f1-    1 4f3-    1 6h1- 
                                   1 6h3-    1 6h5-    1 6h1-    1 6h3-    1 6h5-    1 6h1-    1 6h3-    1 6h5- 

   1.3   2    -2.7617  -18.4265  0.999520  0.016405  0.014532  0.000827 -0.000824  0.000172 -0.004254  0.001210 -0.000255 -0.000314
                                -0.001230  0.000680 -0.003398  0.001432 -0.002742  0.000179 -0.000907 -0.000013  0.000205 -0.000005
                                -0.000012 -0.000046 -0.000026 -0.000031 -0.000206  0.000001  0.000001  0.000009

   2.3   0     0.0367   -3.3090 -0.156831  0.047091  0.135463 -0.063133  0.054704  0.022814  1.067276  0.108307 -0.027490  0.002788
                                 0.000541 -0.000052  0.000002 -0.000204 -0.000212 -0.000047 -0.000040 -0.000106 -0.000009 -0.000018
                                -0.000021 -0.000162  0.000011  0.000012  0.000089  0.000000  0.000000 -0.000001

   3.3   0     0.1721   -3.4377  0.496343  2.177086 -0.720418  0.323675 -0.252206 -0.102685 -2.416567 -0.478488  0.119626  0.004264
                                 0.000960  0.000097  0.000079 -0.000382 -0.000336 -0.000087 -0.000066 -0.000092  0.000008 -0.000029
                                -0.000034 -0.000262  0.000016  0.000018  0.000134  0.000000  0.000000 -0.000001

                                   1 3d2-    1 3d2-    1 3d2-    1 3d2-    1 3d2-    1 3d2-    1 3d2-    1 3d2-    1 5g2-    1 5g4- 
                                   1 5g2-    1 5g4-    1 5g2-    1 5g4-    1 5g2-    1 5g4-    1 7i2-    1 7i6-    1 7i4-    1 7i2- 
                                   1 7i6-    1 7i4- 

   1.4   +    -0.6599  -13.3829  0.999614 -0.118661 -0.033467 -0.001580 -0.000604 -0.012843  0.006270 -0.005992  0.001476 -0.000029
                                 0.001565 -0.000031  0.000514 -0.000010  0.000053 -0.000001 -0.000029 -0.000723  0.000003 -0.000008
                                -0.000185  0.000001

   2.4   0     0.2375   -3.1335 -0.689946 -1.362908 -1.042039 -0.503151  0.197671  2.890140 -1.511624  1.422798  0.000270 -0.000005
                                -0.000316  0.000006 -0.000149  0.000003  0.000094 -0.000002  0.000003  0.000083 -0.000000  0.000002
                                 0.000035 -0.000000

   3.4   0     0.7687   -4.1120  1.801676  5.308644  3.810888  1.728728 -0.634583 -6.806778  4.611958 -4.330782  0.001423 -0.000028
                                -0.000756  0.000015 -0.000358  0.000007  0.000212 -0.000004  0.000006  0.000140 -0.000001  0.000004
                                 0.000104 -0.000000

                                   1 2pz     1 2pz     1 2pz     1 2pz     1 2pz     1 2pz     1 2pz     1 2pz     1 2pz     1 4f0  
                                   1 4f2+    1 4f0     1 4f2+    1 4f0     1 4f2+    1 4f0     1 4f2+    1 4f0     1 4f2+    1 6h2+ 
                                   1 6h4+    1 6h0     1 6h2+    1 6h4+    1 6h0     1 6h2+    1 6h4+    1 6h0  

   1.5   2    -2.7682  -18.4429  0.999026  0.013599  0.012926  0.001451 -0.000404  0.000079 -0.003612  0.001910 -0.000491 -0.000005
                                -0.000006  0.001888 -0.000031  0.002617 -0.000033  0.000502 -0.000008 -0.000081  0.000002  0.000000
                                -0.000028 -0.000003  0.000001 -0.000130 -0.000033 -0.000000  0.000006  0.000001

   2.5   0     0.0326   -3.4125 -0.144941  0.114253  0.124443 -0.057900  0.050146  0.020959  0.999578  0.099361 -0.025229  0.003437
                                -0.000024 -0.000028  0.000001 -0.000205  0.000000 -0.000049  0.000000 -0.000128  0.000001  0.000001
                                -0.000112 -0.000027 -0.000001  0.000060  0.000016 -0.000000 -0.000000  0.000000

   3.5   0     0.1661   -3.4071  0.491056  2.166808 -0.699983  0.314972 -0.246227 -0.100275 -2.426910 -0.467605  0.116972  0.004894
                                -0.000034  0.000150 -0.000000 -0.000377  0.000001 -0.000089  0.000000 -0.000108  0.000001  0.000002
                                -0.000170 -0.000041 -0.000001  0.000085  0.000022 -0.000000 -0.000000  0.000000

                                   1 3d1+    1 3d1+    1 3d1+    1 3d1+    1 3d1+    1 3d1+    1 3d1+    1 3d1+    1 5g1+    1 5g3+ 
                                   1 5g1+    1 5g3+    1 5g1+    1 5g3+    1 5g1+    1 5g3+    1 7i5+    1 7i3+    1 7i1+    1 7i5+ 
                                   1 7i3+    1 7i1+ 

   1.6   +    -0.6912  -13.4586  0.997980 -0.128613 -0.035821 -0.001414 -0.000486 -0.010331  0.005689 -0.005286  0.002266 -0.000583
                                 0.002549 -0.000873  0.000825 -0.000245  0.000108 -0.000087 -0.000417  0.000095 -0.000096 -0.000108
                                 0.000026 -0.000027

   2.6   0     0.2355   -3.1376 -0.678117 -1.343182 -1.029063 -0.497609  0.195619  2.865466 -1.496285  1.408352  0.000441 -0.000087
                                -0.000499  0.000151 -0.000233  0.000060  0.000141 -0.000019  0.000046 -0.000011  0.000011  0.000020
                                -0.000005  0.000005

   3.6   0     0.7619   -4.1048  1.800150  5.284858  3.787319  1.715988 -0.629685 -6.775367  4.576645 -4.297651  0.002256 -0.000548
                                -0.001187  0.000349 -0.000553  0.000132  0.000306 -0.000021  0.000078 -0.000018  0.000018  0.000060
                                -0.000014  0.000014

                                   1 3d1-    1 3d1-    1 3d1-    1 3d1-    1 3d1-    1 3d1-    1 3d1-    1 3d1-    1 5g1-    1 5g3- 
                                   1 5g1-    1 5g3-    1 5g1-    1 5g3-    1 5g1-    1 5g3-    1 7i5-    1 7i3-    1 7i1-    1 7i5- 
                                   1 7i3-    1 7i1- 

   1.7   +    -0.6915  -13.4594  0.997962 -0.128722 -0.035847 -0.001412 -0.000485 -0.010303  0.005682 -0.005278  0.002247  0.000553
                                 0.002527  0.000844  0.000818  0.000235  0.000106  0.000086 -0.000418 -0.000088 -0.000093 -0.000108
                                -0.000024 -0.000026

   2.7   0     0.2355   -3.1377 -0.677979 -1.342940 -1.028902 -0.497540  0.195594  2.865161 -1.496093  1.408171  0.000438  0.000081
                                -0.000494 -0.000145 -0.000231 -0.000057  0.000140  0.000017  0.000046  0.000010  0.000010  0.000020
                                 0.000004  0.000005

   3.7   0     0.7618   -4.1047  1.800128  5.284579  3.787044  1.715839 -0.629627 -6.775000  4.576225 -4.297257  0.002237  0.000518
                                -0.001177 -0.000334 -0.000548 -0.000125  0.000304  0.000016  0.000078  0.000017  0.000018  0.000060
                                 0.000013  0.000014

                                   1 4f2-    1 4f2-    1 4f2-    1 4f2-    1 4f2-    1 6h4-    1 6h2-    1 6h4-    1 6h2-    1 6h4- 
                                   1 6h2- 

   1.8   0     1.1537   -3.9544  1.050344 -0.114866  0.118853  0.019188 -0.074587 -0.000011  0.001053  0.000001 -0.000104 -0.000001
                                 0.000075

   2.8   0     3.3512   -3.0035 -0.621675  1.265132 -0.257239 -0.033300  0.255032 -0.000039  0.003740 -0.000002  0.000193 -0.000001
                                 0.000058

 HOMO      1.4    -0.659901 =     -17.9568eV
 LUMO      2.5     0.032598 =       0.8870eV
 LUMO-HOMO         0.692499 =      18.8439eV


 **********************************************************************************************************************************
 DATASETS  * FILE   NREC   LENGTH (MB)   RECORD NAMES
              1      20      162.81       500      610      700      900      950      970     1000      129      960     1100   
                                          VAR    BASINP    GEOM    SYMINP    ZMAT    AOBASIS   BASIS     P2S    ABASIS      S 
                                         1400     1410     1420     1200     1210     1080     1600     1650     1300     1700   
                                         EKIN       V       ECP      H0       H01     AOSYM     SMH    MOLCAS    ERIS     OPER   

              2       4        2.96       700     1000      520     4202   
                                         GEOM     BASIS   MCVARS     RHF  

 PROGRAMS   *        TOTAL       RHF       INT
 CPU TIMES  *        13.69      1.46     12.10
 REAL TIME  *        23.15 SEC
 DISK USED  *       475.55 MB      
 **********************************************************************************************************************************


 PROGRAM * POP (Mulliken population analysis)

 
 Density matrix read from record         4202.2  Type=RHF/CHARGE (state 1.1)
 
 Population analysis by basis function type

 Unique atom        s        p        d        f        g    Total    Charge
   1  FE      3.99945  5.99980  6.00046  0.00020  0.00009 16.00000  - 0.00000


 **********************************************************************************************************************************
 DATASETS  * FILE   NREC   LENGTH (MB)   RECORD NAMES
              1      20      162.81       500      610      700      900      950      970     1000      129      960     1100   
                                          VAR    BASINP    GEOM    SYMINP    ZMAT    AOBASIS   BASIS     P2S    ABASIS      S 
                                         1400     1410     1420     1200     1210     1080     1600     1650     1300     1700   
                                         EKIN       V       ECP      H0       H01     AOSYM     SMH    MOLCAS    ERIS     OPER   

              2       4        2.96       700     1000      520     4202   
                                         GEOM     BASIS   MCVARS     RHF  

 PROGRAMS   *        TOTAL       POP       RHF       INT
 CPU TIMES  *        13.69      0.00      1.46     12.10
 REAL TIME  *        23.20 SEC
 DISK USED  *       475.55 MB      
 **********************************************************************************************************************************


 PROGRAM * MULTI (Direct Multiconfiguration SCF)       Authors: P.J. Knowles, H.-J. Werner (1984)     S.T. Elbert (1988)


 Number of closed-shell orbitals:   5 (   2   1   1   0   1   0   0   0 )
 Number of active  orbitals:        5 (   2   0   0   1   0   1   1   0 )
 Number of external orbitals:     196 (  41  27  27  21  27  21  21  11 )

 State symmetry 1

 Number of electrons:     6    Spin symmetry=Quintet   Space symmetry=1
 Number of states:        2
 Number of CSFs:          2   (2 determinants, 5 intermediate states)

 State symmetry 2

 Number of electrons:     6    Spin symmetry=Quintet   Space symmetry=4
 Number of states:        1
 Number of CSFs:          1   (1 determinants, 5 intermediate states)

 State symmetry 3

 Number of electrons:     6    Spin symmetry=Quintet   Space symmetry=6
 Number of states:        1
 Number of CSFs:          1   (1 determinants, 5 intermediate states)

 State symmetry 4

 Number of electrons:     6    Spin symmetry=Quintet   Space symmetry=7
 Number of states:        1
 Number of CSFs:          1   (1 determinants, 5 intermediate states)

 Molecular orbitals read from record     4202.2  Type=RHF/CANONICAL (state 1.1)
 *** IN SYMMETRY 1 ORBITAL  1 SYMMETRY CONTAMINATION OF 0.121D-01 HAS BEEN REMOVED
 *** IN SYMMETRY 1 ORBITAL  2 SYMMETRY CONTAMINATION OF 0.293D-01 HAS BEEN REMOVED
 *** IN SYMMETRY 1 ORBITAL  3 SYMMETRY CONTAMINATION OF 0.783D-02 HAS BEEN REMOVED
 *** IN SYMMETRY 1 ORBITAL  4 SYMMETRY CONTAMINATION OF 0.303D-01 HAS BEEN REMOVED

 EXTRA SYMMETRY OF MOS IN SYMMETRY 1:   1 1 3 2 1 2 3 1 2 3   1 2 3 1 4 6 5 2 3 4   6 5 1 2 310 9 8 7 4   6 5 2 3 1 4 6 510 9
                                        8 7 2 3 1
 *** IN SYMMETRY 2 ORBITAL  1 SYMMETRY CONTAMINATION OF 0.108D-01 HAS BEEN REMOVED
 EXTRA SYMMETRY OF MOS IN SYMMETRY 2:   1 1 1 1 2 3 1 2 3 1   4 5 6 2 3 1 2 3 4 5   6 1 2 3 4 5 6 1
 *** IN SYMMETRY 3 ORBITAL  1 SYMMETRY CONTAMINATION OF 0.109D-01 HAS BEEN REMOVED
 EXTRA SYMMETRY OF MOS IN SYMMETRY 3:   1 1 1 1 2 3 1 2 3 1   4 5 6 2 3 1 2 3 4 5   6 1 2 3 4 5 6 1
 *** IN SYMMETRY 4 ORBITAL  1 SYMMETRY CONTAMINATION OF 0.391D-02 HAS BEEN REMOVED
 EXTRA SYMMETRY OF MOS IN SYMMETRY 4:   1 1 1 1 2 3 1 2 3 1   4 6 5 2 3 1 2 3 4 6   5 1
 *** IN SYMMETRY 5 ORBITAL  1 SYMMETRY CONTAMINATION OF 0.518D-02 HAS BEEN REMOVED
 EXTRA SYMMETRY OF MOS IN SYMMETRY 5:   1 1 1 1 2 3 1 2 3 1   6 4 5 2 3 1 2 3 6 4   5 1 2 3 6 4 5 1
 *** IN SYMMETRY 6 ORBITAL  1 SYMMETRY CONTAMINATION OF 0.696D-02 HAS BEEN REMOVED
 EXTRA SYMMETRY OF MOS IN SYMMETRY 6:   1 1 1 1 2 3 1 2 3 1   6 5 4 2 3 1 2 3 6 5   4 1
 *** IN SYMMETRY 7 ORBITAL  1 SYMMETRY CONTAMINATION OF 0.685D-02 HAS BEEN REMOVED
 EXTRA SYMMETRY OF MOS IN SYMMETRY 7:   1 1 1 1 2 3 1 2 3 1   6 5 4 2 3 1 2 3 6 5   4 1
 EXTRA SYMMETRY OF MOS IN SYMMETRY 8:   1 1 3 2 1 1 3 2 1 3   2

 Wavefunction dump at record             5202.2

 Convergence thresholds  0.10E-01 (gradient)  0.10E-05 (energy)  0.10E-02 (step length)

 Weight factors for state symmetry  1:    0.20000   0.20000
 Weight factors for state symmetry  2:    0.20000
 Weight factors for state symmetry  3:    0.20000
 Weight factors for state symmetry  4:    0.20000

 Number of orbital rotations:      312   (     4 Core/Active    163 Core/Virtual   0 Active/Active    145 Active/Virtual)
 Total number of variables:        319


 ITER. MIC  NCI  NEG     ENERGY(VAR)     ENERGY(PROJ)   ENERGY CHANGE     GRAD(0)  GRAD(ORB)   GRAD(CI)     STEP       TIME

   1   38   16    0    -122.63968163    -122.64221053   -0.00252890    0.07329483 0.00000000 0.00000000  0.47D-01      0.36
   2   26   20    0    -122.64222516    -122.64222558   -0.00000042    0.00094095 0.00000000 0.00000000  0.70D-03      0.72
   3   21   20    0    -122.64222558    -122.64222558    0.00000000    0.00000022 0.00000000 0.00000000  0.18D-06      1.06

 ** WVFN ****  CONVERGENCE REACHED, FINAL GRADIENT:  0.27D-11



 Results for state 1.1
 =====================

 !MCSCF STATE 1.1 Energy             -122.642225584714
 Nuclear energy                         0.00000000
 Kinetic energy                        71.85688334
 One electron energy                 -215.81802940
 Two electron energy                   93.17580382
 Virial ratio                           2.70675682

 !MCSCF STATE 1.1 Dipole moment         0.00000000     0.00000000     0.00000000
 Dipole moment /Debye                   0.00000000     0.00000000     0.00000000

 Results for state 2.1
 =====================

 !MCSCF STATE 2.1 Energy             -122.642225584714
 Nuclear energy                         0.00000000
 Kinetic energy                        71.85688334
 One electron energy                 -215.81802940
 Two electron energy                   93.17580382
 Virial ratio                           2.70675682

 !MCSCF STATE 2.1 Dipole moment         0.00000000     0.00000000     0.00000000
 Dipole moment /Debye                   0.00000000     0.00000000     0.00000000



 Results for state 1.4
 =====================

 !MCSCF STATE 1.4 Energy             -122.642225584714
 Nuclear energy                         0.00000000
 Kinetic energy                        71.85688334
 One electron energy                 -215.81802940
 Two electron energy                   93.17580382
 Virial ratio                           2.70675682

 !MCSCF STATE 1.4 Dipole moment         0.00000000     0.00000000     0.00000000
 Dipole moment /Debye                   0.00000000     0.00000000     0.00000000



 Results for state 1.6
 =====================

 !MCSCF STATE 1.6 Energy             -122.642225584714
 Nuclear energy                         0.00000000
 Kinetic energy                        71.85688334
 One electron energy                 -215.81802940
 Two electron energy                   93.17580382
 Virial ratio                           2.70675682

 !MCSCF STATE 1.6 Dipole moment         0.00000000     0.00000000     0.00000000
 Dipole moment /Debye                   0.00000000     0.00000000     0.00000000



 Results for state 1.7
 =====================

 !MCSCF STATE 1.7 Energy             -122.642225584714
 Nuclear energy                         0.00000000
 Kinetic energy                        71.85688334
 One electron energy                 -215.81802940
 Two electron energy                   93.17580382
 Virial ratio                           2.70675682

 !MCSCF STATE 1.7 Dipole moment         0.00000000     0.00000000     0.00000000
 Dipole moment /Debye                   0.00000000     0.00000000     0.00000000

 State-averaged charge density matrix saved on record  5202.2 (density set 1)

 !MCSCF expec        <1.1|EKIN|1.1>    71.856883344555
 !MCSCF expec        <2.1|EKIN|2.1>    71.856883344555
 !MCSCF expec        <1.4|EKIN|1.4>    71.856883344555
 !MCSCF expec        <1.6|EKIN|1.6>    71.856883344555
 !MCSCF expec        <1.7|EKIN|1.7>    71.856883344555

 !MCSCF expec         <1.1|POT|1.1>   -18.866063596663
 !MCSCF expec         <2.1|POT|2.1>   -18.866063596663
 !MCSCF expec         <1.4|POT|1.4>   -18.866063596663
 !MCSCF expec         <1.6|POT|1.6>   -18.866063596663
 !MCSCF expec         <1.7|POT|1.7>   -18.866063596663


 NATURAL ORBITALS (state averaged)
 =================================

   Orb     Occ        Energy       Coefficients

                                   1 1s      1 1s      1 1s      1 1s      1 1s      1 1s      1 1s      1 1s      1 1s      1 3d0  
                                   1 3d2+    1 3d0     1 3d2+    1 3d0     1 3d2+    1 3d0     1 3d2+    1 3d0     1 3d2+    1 3d0  
                                   1 3d2+    1 3d0     1 3d2+    1 3d0     1 3d2+    1 5g0     1 5g4+    1 5g2+    1 5g0     1 5g4+ 
                                   1 5g2+    1 5g0     1 5g4+    1 5g2+    1 5g0     1 5g4+    1 5g2+    1 7i6+    1 7i4+    1 7i2+ 
                                   1 7i0     1 7i6+    1 7i4+    1 7i2+    1 7i0  

   1.1  2.00000    -4.274955     1.000179  0.000174 -0.000120  0.000023  0.000043 -0.000021 -0.000223 -0.008759  0.008650  0.000000
                                 0.000000  0.000000  0.000000  0.000000  0.000000  0.000000  0.000000  0.000000  0.000000  0.000000
                                 0.000000  0.000000  0.000000  0.000000  0.000000  0.000000  0.000000  0.000000  0.000000  0.000000
                                 0.000000  0.000000  0.000000  0.000000  0.000000  0.000000  0.000000  0.000000  0.000000  0.000000
                                 0.000000  0.000000  0.000000  0.000000  0.000000

   2.1  2.00000    -0.261288     0.000036  1.000065 -0.000041  0.000017  0.000015 -0.000007 -0.000079 -0.001429  0.001413  0.000000
                                 0.000000  0.000000  0.000000  0.000000  0.000000  0.000000  0.000000  0.000000  0.000000  0.000000
                                 0.000000  0.000000  0.000000  0.000000  0.000000  0.000000  0.000000  0.000000  0.000000  0.000000
                                 0.000000  0.000000  0.000000  0.000000  0.000000  0.000000  0.000000  0.000000  0.000000  0.000000
                                 0.000000  0.000000  0.000000  0.000000  0.000000

   3.1  1.20000    -0.247842     0.000000  0.000000  0.000000  0.000000  0.000000  0.000000  0.000000  0.000000  0.000000  1.001121
                                 0.000000 -0.108427  0.000000 -0.031318  0.000000 -0.001993  0.000000 -0.000735  0.000000 -0.015065
                                 0.000000  0.006395  0.000000 -0.006232  0.000000  0.000000  0.000000  0.000000  0.000000  0.000000
                                 0.000000  0.000000  0.000000  0.000000  0.000000  0.000000  0.000000  0.000000  0.000000  0.000000
                                 0.000000  0.000000  0.000000  0.000000  0.000000

   4.1  1.20000    -0.247842     0.000000  0.000000  0.000000  0.000000  0.000000  0.000000  0.000000  0.000000  0.000000  0.000000
                                 1.001121  0.000000 -0.108427  0.000000 -0.031318  0.000000 -0.001993  0.000000 -0.000735  0.000000
                                -0.015065  0.000000  0.006395  0.000000 -0.006232  0.000000  0.000000  0.000000  0.000000  0.000000
                                 0.000000  0.000000  0.000000  0.000000  0.000000  0.000000  0.000000  0.000000  0.000000  0.000000
                                 0.000000  0.000000  0.000000  0.000000  0.000000

                                   1 2px     1 2px     1 2px     1 2px     1 2px     1 2px     1 2px     1 2px     1 2px     1 4f1+ 
                                   1 4f3+    1 4f1+    1 4f3+    1 4f1+    1 4f3+    1 4f1+    1 4f3+    1 4f1+    1 4f3+    1 6h1+ 
                                   1 6h3+    1 6h5+    1 6h1+    1 6h3+    1 6h5+    1 6h1+    1 6h3+    1 6h5+ 

   1.2  2.00000    -2.762951     0.999370  0.015521  0.014045  0.001030 -0.000693  0.000141 -0.004052  0.001449 -0.000335  0.000000
                                 0.000000  0.000000  0.000000  0.000000  0.000000  0.000000  0.000000  0.000000  0.000000  0.000000
                                 0.000000  0.000000  0.000000  0.000000  0.000000  0.000000  0.000000  0.000000

                                   1 2py     1 2py     1 2py     1 2py     1 2py     1 2py     1 2py     1 2py     1 2py     1 4f1- 
                                   1 4f3-    1 4f1-    1 4f3-    1 4f1-    1 4f3-    1 4f1-    1 4f3-    1 4f1-    1 4f3-    1 6h1- 
                                   1 6h3-    1 6h5-    1 6h1-    1 6h3-    1 6h5-    1 6h1-    1 6h3-    1 6h5- 

   1.3  2.00000    -2.762951     0.999370  0.015521  0.014045  0.001030 -0.000693  0.000141 -0.004052  0.001449 -0.000335  0.000000
                                 0.000000  0.000000  0.000000  0.000000  0.000000  0.000000  0.000000  0.000000  0.000000  0.000000
                                 0.000000  0.000000  0.000000  0.000000  0.000000  0.000000  0.000000  0.000000

                                   1 3d2-    1 3d2-    1 3d2-    1 3d2-    1 3d2-    1 3d2-    1 3d2-    1 3d2-    1 5g2-    1 5g4- 
                                   1 5g2-    1 5g4-    1 5g2-    1 5g4-    1 5g2-    1 5g4-    1 7i2-    1 7i6-    1 7i4-    1 7i2- 
                                   1 7i6-    1 7i4- 

   1.4  1.20000    -0.247842     1.001121 -0.108427 -0.031318 -0.001993 -0.000735 -0.015065  0.006395 -0.006232  0.000000  0.000000
                                 0.000000  0.000000  0.000000  0.000000  0.000000  0.000000  0.000000  0.000000  0.000000  0.000000
                                 0.000000  0.000000

                                   1 2pz     1 2pz     1 2pz     1 2pz     1 2pz     1 2pz     1 2pz     1 2pz     1 2pz     1 4f0  
                                   1 4f2+    1 4f0     1 4f2+    1 4f0     1 4f2+    1 4f0     1 4f2+    1 4f0     1 4f2+    1 6h2+ 
                                   1 6h4+    1 6h0     1 6h2+    1 6h4+    1 6h0     1 6h2+    1 6h4+    1 6h0  

   1.5  2.00000    -2.762951     0.999370  0.015521  0.014045  0.001030 -0.000693  0.000141 -0.004052  0.001449 -0.000335  0.000000
                                 0.000000  0.000000  0.000000  0.000000  0.000000  0.000000  0.000000  0.000000  0.000000  0.000000
                                 0.000000  0.000000  0.000000  0.000000  0.000000  0.000000  0.000000  0.000000

                                   1 3d1+    1 3d1+    1 3d1+    1 3d1+    1 3d1+    1 3d1+    1 3d1+    1 3d1+    1 5g1+    1 5g3+ 
                                   1 5g1+    1 5g3+    1 5g1+    1 5g3+    1 5g1+    1 5g3+    1 7i5+    1 7i3+    1 7i1+    1 7i5+ 
                                   1 7i3+    1 7i1+ 

   1.6  1.20000    -0.247842     1.001121 -0.108427 -0.031318 -0.001993 -0.000735 -0.015065  0.006395 -0.006232  0.000000  0.000000
                                 0.000000  0.000000  0.000000  0.000000  0.000000  0.000000  0.000000  0.000000  0.000000  0.000000
                                 0.000000  0.000000

                                   1 3d1-    1 3d1-    1 3d1-    1 3d1-    1 3d1-    1 3d1-    1 3d1-    1 3d1-    1 5g1-    1 5g3- 
                                   1 5g1-    1 5g3-    1 5g1-    1 5g3-    1 5g1-    1 5g3-    1 7i5-    1 7i3-    1 7i1-    1 7i5- 
                                   1 7i3-    1 7i1- 

   1.7  1.20000    -0.247842     1.001121 -0.108427 -0.031318 -0.001993 -0.000735 -0.015065  0.006395 -0.006232  0.000000  0.000000
                                 0.000000  0.000000  0.000000  0.000000  0.000000  0.000000  0.000000  0.000000  0.000000  0.000000
                                 0.000000  0.000000
 

 EXTRA SYMMETRY OF MOS IN SYMMETRY 1:   1 1 2 3 1 3 2 1 3 2   1 3 2 1 4 5 6 3 2 5   6 4 1 3 2 8 9 710 6   5 4 3 2 1 5 6 4 8 9
                                        710 3 2 1
 EXTRA SYMMETRY OF MOS IN SYMMETRY 2:   1 1 1 1 2 3 1 3 2 1   5 6 4 3 2 1 3 2 5 6   4 1 2 3 5 6 4 1
 EXTRA SYMMETRY OF MOS IN SYMMETRY 3:   1 1 1 1 2 3 1 3 2 1   6 5 4 3 2 1 3 2 5 6   4 1 2 3 5 6 4 1
 EXTRA SYMMETRY OF MOS IN SYMMETRY 4:   1 1 1 1 3 2 1 3 2 1   5 6 4 3 2 1 3 2 5 6   4 1
 EXTRA SYMMETRY OF MOS IN SYMMETRY 5:   1 1 1 1 3 2 1 2 3 1   6 4 5 3 2 1 3 2 6 4   5 1 3 2 6 4 5 1
 EXTRA SYMMETRY OF MOS IN SYMMETRY 8:   1 1 2 3 1 1 3 2 1 3   2

 Natural orbital dump (state averaged) at molpro section  5202.2    (Orbital set 2)


 CI vector for state symmetry 1
 ==============================

 a2 a a a          1.0000000   0.0000000
 2a a a a          0.0000000   1.0000000

 TOTAL ENERGIES                      -122.64222558  -122.64222558

 CI vector for state symmetry 2
 ==============================

 aa 2 a a          1.0000000

 TOTAL ENERGIES                      -122.64222558

 CI vector for state symmetry 3
 ==============================

 aa a 2 a          1.0000000

 TOTAL ENERGIES                      -122.64222558

 CI vector for state symmetry 4
 ==============================

 aa a a 2          1.0000000

 TOTAL ENERGIES                      -122.64222558



 **********************************************************************************************************************************
 DATASETS  * FILE   NREC   LENGTH (MB)   RECORD NAMES
              1      21      166.53       500      610      700      900      950      970     1000      129      960     1100   
                                          VAR    BASINP    GEOM    SYMINP    ZMAT    AOBASIS   BASIS     P2S    ABASIS      S 
                                         1400     1410     1420     1200     1210     1080     1600     1650     1300     1700   
                                         EKIN       V       ECP      H0       H01     AOSYM     SMH    MOLCAS    ERIS     OPER   
                                         1380   
                                         JKOP   

              2       5        5.67       700     1000      520     4202     5202   
                                         GEOM     BASIS   MCVARS     RHF     MCSCF   

 PROGRAMS   *        TOTAL     MULTI       POP       RHF       INT
 CPU TIMES  *        15.15      1.46      0.00      1.46     12.10
 REAL TIME  *        25.87 SEC
 DISK USED  *       475.55 MB      
 **********************************************************************************************************************************


 PROGRAM * RHF-SCF (OPEN SHELL)       Authors: W. Meyer, H.-J. Werner


 NUMBER OF ELECTRONS:      10+    6-    SPACE SYMMETRY=1    SPIN SYMMETRY: Quintet 
 CONVERGENCE THRESHOLDS:    1.00E-05 (Density)    1.00E-07 (Energy)
 MAX. NUMBER OF ITERATIONS:        0
 INTERPOLATION TYPE:            DIIS
 INTERPOLATION STEPS:              2 (START)      1 (STEP)
 LEVEL SHIFTS:                 -0.60 (CLOSED) -0.30 (OPEN) 


 Singly occupied orbitals:      4.1       1.4       1.6       1.7
 Molecular orbitals read from record     5202.2  Type=MCSCF/NATURAL (state averaged)

 Molecular orbital dump at record        2101.2

 ITERATION    DDIFF          GRAD             ENERGY        2-EL.EN.            DIPOLE MOMENTS         DIIS   ORB.
    1      0.000D+00      0.000D+00      -122.64222558    186.351608    0.00000    0.00000    0.00000    0    start

 Final alpha occupancy:   4   1   1   1   1   1   1   0
 Final beta  occupancy:   3   1   1   0   1   0   0   0

 !RHF STATE 1.1 Energy               -122.642225584714
 Nuclear energy                         0.00000000
 One-electron energy                 -215.81802940
 Two-electron energy                   93.17580382
 Virial quotient                       -1.70675682
 !RHF STATE 1.1 Dipole moment           0.00000000     0.00000000     0.00000000
 Dipole moment /Debye                   0.00000000     0.00000000     0.00000000
 

 !RHF expec          <1.1|EKIN|1.1>    71.856883344555
 
 !RHF expec           <1.1|POT|1.1>   -18.866063596663

 ELECTRON ORBITALS
 =================


   Orb  Occ    Energy  Couls-En    Coefficients

                                   1 1s      1 1s      1 1s      1 1s      1 1s      1 1s      1 1s      1 1s      1 1s      1 3d0  
                                   1 3d2+    1 3d0     1 3d2+    1 3d0     1 3d2+    1 3d0     1 3d2+    1 3d0     1 3d2+    1 3d0  
                                   1 3d2+    1 3d0     1 3d2+    1 3d0     1 3d2+    1 5g0     1 5g4+    1 5g2+    1 5g0     1 5g4+ 
                                   1 5g2+    1 5g0     1 5g4+    1 5g2+    1 5g0     1 5g4+    1 5g2+    1 7i6+    1 7i4+    1 7i2+ 
                                   1 7i0     1 7i6+    1 7i4+    1 7i2+    1 7i0  

   1.1   2    -4.2750  -21.5470  1.000179  0.000174 -0.000120  0.000023  0.000043 -0.000021 -0.000223 -0.008759  0.008650  0.000000
                                 0.000000  0.000000  0.000000  0.000000  0.000000  0.000000  0.000000  0.000000  0.000000  0.000000
                                 0.000000  0.000000  0.000000  0.000000  0.000000  0.000000  0.000000  0.000000  0.000000  0.000000
                                 0.000000  0.000000  0.000000  0.000000  0.000000  0.000000  0.000000  0.000000  0.000000  0.000000
                                 0.000000  0.000000  0.000000  0.000000  0.000000

   2.1   2    -0.2613   -5.8683  0.000036  1.000065 -0.000041  0.000017  0.000015 -0.000007 -0.000079 -0.001429  0.001413  0.000000
                                 0.000000  0.000000  0.000000  0.000000  0.000000  0.000000  0.000000  0.000000  0.000000  0.000000
                                 0.000000  0.000000  0.000000  0.000000  0.000000  0.000000  0.000000  0.000000  0.000000  0.000000
                                 0.000000  0.000000  0.000000  0.000000  0.000000  0.000000  0.000000  0.000000  0.000000  0.000000
                                 0.000000  0.000000  0.000000  0.000000  0.000000

   3.1   2    -0.2478  -12.9229  0.000000  0.000000  0.000000  0.000000  0.000000  0.000000  0.000000  0.000000  0.000000  1.001121
                                 0.000000 -0.108427  0.000000 -0.031318  0.000000 -0.001993  0.000000 -0.000735  0.000000 -0.015065
                                 0.000000  0.006395  0.000000 -0.006232  0.000000  0.000000  0.000000  0.000000  0.000000  0.000000
                                 0.000000  0.000000  0.000000  0.000000  0.000000  0.000000  0.000000  0.000000  0.000000  0.000000
                                 0.000000  0.000000  0.000000  0.000000  0.000000

   4.1   +    -0.2478  -12.9229  0.000000  0.000000  0.000000  0.000000  0.000000  0.000000  0.000000  0.000000  0.000000  0.000000
                                 1.001121  0.000000 -0.108427  0.000000 -0.031318  0.000000 -0.001993  0.000000 -0.000735  0.000000
                                -0.015065  0.000000  0.006395  0.000000 -0.006232  0.000000  0.000000  0.000000  0.000000  0.000000
                                 0.000000  0.000000  0.000000  0.000000  0.000000  0.000000  0.000000  0.000000  0.000000  0.000000
                                 0.000000  0.000000  0.000000  0.000000  0.000000

                                   1 2px     1 2px     1 2px     1 2px     1 2px     1 2px     1 2px     1 2px     1 2px     1 4f1+ 
                                   1 4f3+    1 4f1+    1 4f3+    1 4f1+    1 4f3+    1 4f1+    1 4f3+    1 4f1+    1 4f3+    1 6h1+ 
                                   1 6h3+    1 6h5+    1 6h1+    1 6h3+    1 6h5+    1 6h1+    1 6h3+    1 6h5+ 

   1.2   2    -2.7630  -18.4312  0.999370  0.015521  0.014045  0.001030 -0.000693  0.000141 -0.004052  0.001449 -0.000335  0.000000
                                 0.000000  0.000000  0.000000  0.000000  0.000000  0.000000  0.000000  0.000000  0.000000  0.000000
                                 0.000000  0.000000  0.000000  0.000000  0.000000  0.000000  0.000000  0.000000

                                   1 2py     1 2py     1 2py     1 2py     1 2py     1 2py     1 2py     1 2py     1 2py     1 4f1- 
                                   1 4f3-    1 4f1-    1 4f3-    1 4f1-    1 4f3-    1 4f1-    1 4f3-    1 4f1-    1 4f3-    1 6h1- 
                                   1 6h3-    1 6h5-    1 6h1-    1 6h3-    1 6h5-    1 6h1-    1 6h3-    1 6h5- 

   1.3   2    -2.7630  -18.4312  0.999370  0.015521  0.014045  0.001030 -0.000693  0.000141 -0.004052  0.001449 -0.000335  0.000000
                                 0.000000  0.000000  0.000000  0.000000  0.000000  0.000000  0.000000  0.000000  0.000000  0.000000
                                 0.000000  0.000000  0.000000  0.000000  0.000000  0.000000  0.000000  0.000000

                                   1 3d2-    1 3d2-    1 3d2-    1 3d2-    1 3d2-    1 3d2-    1 3d2-    1 3d2-    1 5g2-    1 5g4- 
                                   1 5g2-    1 5g4-    1 5g2-    1 5g4-    1 5g2-    1 5g4-    1 7i2-    1 7i6-    1 7i4-    1 7i2- 
                                   1 7i6-    1 7i4- 

   1.4   +    -0.2478  -12.9229  1.001121 -0.108427 -0.031318 -0.001993 -0.000735 -0.015065  0.006395 -0.006232  0.000000  0.000000
                                 0.000000  0.000000  0.000000  0.000000  0.000000  0.000000  0.000000  0.000000  0.000000  0.000000
                                 0.000000  0.000000

                                   1 2pz     1 2pz     1 2pz     1 2pz     1 2pz     1 2pz     1 2pz     1 2pz     1 2pz     1 4f0  
                                   1 4f2+    1 4f0     1 4f2+    1 4f0     1 4f2+    1 4f0     1 4f2+    1 4f0     1 4f2+    1 6h2+ 
                                   1 6h4+    1 6h0     1 6h2+    1 6h4+    1 6h0     1 6h2+    1 6h4+    1 6h0  

   1.5   2    -2.7630  -18.4312  0.999370  0.015521  0.014045  0.001030 -0.000693  0.000141 -0.004052  0.001449 -0.000335  0.000000
                                 0.000000  0.000000  0.000000  0.000000  0.000000  0.000000  0.000000  0.000000  0.000000  0.000000
                                 0.000000  0.000000  0.000000  0.000000  0.000000  0.000000  0.000000  0.000000

                                   1 3d1+    1 3d1+    1 3d1+    1 3d1+    1 3d1+    1 3d1+    1 3d1+    1 3d1+    1 5g1+    1 5g3+ 
                                   1 5g1+    1 5g3+    1 5g1+    1 5g3+    1 5g1+    1 5g3+    1 7i5+    1 7i3+    1 7i1+    1 7i5+ 
                                   1 7i3+    1 7i1+ 

   1.6   +    -0.2478  -12.9229  1.001121 -0.108427 -0.031318 -0.001993 -0.000735 -0.015065  0.006395 -0.006232  0.000000  0.000000
                                 0.000000  0.000000  0.000000  0.000000  0.000000  0.000000  0.000000  0.000000  0.000000  0.000000
                                 0.000000  0.000000

                                   1 3d1-    1 3d1-    1 3d1-    1 3d1-    1 3d1-    1 3d1-    1 3d1-    1 3d1-    1 5g1-    1 5g3- 
                                   1 5g1-    1 5g3-    1 5g1-    1 5g3-    1 5g1-    1 5g3-    1 7i5-    1 7i3-    1 7i1-    1 7i5- 
                                   1 7i3-    1 7i1- 

   1.7   +    -0.2478  -12.9229  1.001121 -0.108427 -0.031318 -0.001993 -0.000735 -0.015065  0.006395 -0.006232  0.000000  0.000000
                                 0.000000  0.000000  0.000000  0.000000  0.000000  0.000000  0.000000  0.000000  0.000000  0.000000
                                 0.000000  0.000000

 HOMO      4.1    -0.247842 =      -6.7441eV
 LUMO      2.2     0.038365 =       1.0440eV
 LUMO-HOMO         0.286208 =       7.7881eV


 **********************************************************************************************************************************
 DATASETS  * FILE   NREC   LENGTH (MB)   RECORD NAMES
              1      21      166.53       500      610      700      900      950      970     1000      129      960     1100   
                                          VAR    BASINP    GEOM    SYMINP    ZMAT    AOBASIS   BASIS     P2S    ABASIS      S 
                                         1400     1410     1420     1200     1210     1080     1600     1650     1300     1700   
                                         EKIN       V       ECP      H0       H01     AOSYM     SMH    MOLCAS    ERIS     OPER   
                                         1380   
                                         JKOP   

              2       6        8.50       700     1000      520     4202     5202     2101   
                                         GEOM     BASIS   MCVARS     RHF     MCSCF     RHF  

 PROGRAMS   *        TOTAL       RHF     MULTI       POP       RHF       INT
 CPU TIMES  *        15.27      0.11      1.46      0.00      1.46     12.10
 REAL TIME  *        26.17 SEC
 DISK USED  *       475.55 MB      
 **********************************************************************************************************************************
 SETTING SCF(I)         =      -122.64222558  AU                              
 SETTING _CC_NORM_MAX   =         2.00000000                                  


 PROGRAM * CCSD (Unrestricted open-shell coupled cluster)     Authors: C. Hampel, H.-J. Werner, 1991, M. Deegan, P.J. Knowles, 1992


 Convergence thresholds:  THRVAR = 1.00D-08  THRDEN = 1.00D-06

 CCSD(T)     terms to be evaluated (factor= 1.000)


 Number of closed-shell orbitals:   6 (   3   1   1   0   1   0   0   0 )
 Number of active  orbitals:        4 (   1   0   0   1   0   1   1   0 )
 Number of external orbitals:     196 (  41  27  27  21  27  21  21  11 )

 Memory could be reduced to 17.97 Mwords without degradation in triples

 Number of N-1 electron functions:              16
 Number of N-2 electron functions:             120
 Number of singly external CSFs:               522
 Number of doubly external CSFs:            458832
 Total number of CSFs:                      459354

 Molecular orbitals read from record     2101.2  Type=RHF/CANONICAL (state 1.1)

 Integral transformation finished. Total CPU:   0.60 sec, npass=  1  Memory used:   3.79 MW

 Starting RMP2 calculation

 ITER.      SQ.NORM     CORR.ENERGY   TOTAL ENERGY   ENERGY CHANGE        DEN1      VAR(S)    VAR(P)  DIIS     TIME
   1      1.10606155    -0.70424813  -123.34647372    -0.70424813    -0.00163631  0.71D-04  0.93D-03  1  1     0.62
   2      1.10866875    -0.70598539  -123.34821098    -0.00173726    -0.00002562  0.26D-05  0.24D-04  2  2     0.64
   3      1.10911420    -0.70615324  -123.34837882    -0.00016785    -0.00000033  0.77D-07  0.28D-06  3  3     0.67
   4      1.10915940    -0.70616608  -123.34839167    -0.00001285    -0.00000000  0.23D-08  0.18D-08  4  4     0.69
   5      1.10916039    -0.70616601  -123.34839160     0.00000007    -0.00000000  0.64D-10  0.21D-10  5  5     0.72

 Norm of t1 vector:      0.06516225      S-energy:    -0.00918333      T1 diagnostic:  0.00740512
 Norm of t2 vector:      0.32390473      P-energy:    -0.69698269
                                         Alpha-Beta:  -0.48395836
                                         Alpha-Alpha: -0.15743950
                                         Beta-Beta:   -0.05558483

 Spin contamination <S**2-Sz**2-Sz>     0.01221201
  Reference energy                   -122.642225584714
  RHF-RMP2 correlation energy          -0.706166012041
 !RHF-RMP2 energy                    -123.348391596756

 Starting UCCSD calculation

 ITER.      SQ.NORM     CORR.ENERGY   TOTAL ENERGY   ENERGY CHANGE        DEN1      VAR(S)    VAR(P)  DIIS     TIME
   1      1.10785029    -0.68111715  -123.32334273    -0.68111715    -0.01337300  0.37D-02  0.29D-02  1  1     1.86
   2      1.12369574    -0.69301854  -123.33524413    -0.01190139    -0.00172907  0.65D-03  0.75D-03  2  2     3.01
   3      1.13588806    -0.69615551  -123.33838109    -0.00313697    -0.00029898  0.19D-03  0.10D-03  3  3     4.18
   4      1.14350396    -0.69793291  -123.34015850    -0.00177740    -0.00003069  0.12D-04  0.11D-04  4  4     5.35
   5      1.14549654    -0.69823071  -123.34045630    -0.00029780    -0.00000345  0.15D-05  0.13D-05  5  5     6.50
   6      1.14597270    -0.69829676  -123.34052234    -0.00006604    -0.00000051  0.44D-07  0.27D-06  6  6     7.68
   7      1.14602627    -0.69830323  -123.34052881    -0.00000647    -0.00000011  0.15D-07  0.61D-07  6  2     8.85
   8      1.14601691    -0.69830134  -123.34052692     0.00000189    -0.00000003  0.74D-08  0.12D-07  6  1    10.02
   9      1.14600320    -0.69830053  -123.34052611     0.00000081    -0.00000001  0.70D-09  0.40D-08  6  3    11.17

 Norm of t1 vector:      0.15107606      S-energy:    -0.01127277      T1 diagnostic:  0.02324704
                                                                       D1 diagnostic:  0.07228727
 Norm of t2 vector:      0.35096898      P-energy:    -0.68702776
                                         Alpha-Beta:  -0.49155578
                                         Alpha-Alpha: -0.14364332
                                         Beta-Beta:   -0.05182867

 Singles amplitudes (print threshold =  0.500E-01):

         I         SYM. A    A   T(IA) [Alpha-Alpha]

         2         1         2     -0.07435132
         2         1         5      0.06809738
 
         I         SYM. A    A   T(IA) [Beta-Beta]

         3         1         4      0.06348954
         3         1         7      0.05933069

 Doubles amplitudes (print threshold =  0.500E-01):

         I         J         SYM. A    SYM. B    A         B      T(IJ, AB) [Alpha-Beta]

         2         2         2         2         1         1     -0.06853787
         2         2         2         2         1         2     -0.05262544
         2         2         2         2         2         1     -0.05649991
         2         2         3         3         1         1     -0.06853787
         2         2         3         3         1         2     -0.05262544
         2         2         3         3         2         1     -0.05649991
         2         2         5         5         1         1     -0.06347980
         2         2         5         5         2         1     -0.05204078

 Spin contamination <S**2-Sz**2-Sz>     0.01146468

 Memory could be reduced to 19.55 Mwords without degradation in triples
 

  Correlated core orbitals:             1.1       1.2       1.3       1.5
  Orbital energies:                    -4.4584   -3.0122   -3.0122   -2.9334
 
  UCCSD core-core energy               -0.173812320238
  UCCSD core-valence energy            -0.316272936470
  UCCSD valence correlation energy     -0.208215272066
 

 RESULTS
 =======

  Reference energy                   -122.642225584714
  UCCSD singles energy                 -0.011272767664
  UCCSD pair energy                    -0.687027761111
  UCCSD correlation energy             -0.698300528775
  Triples (T) contribution             -0.021524058629
  Total correlation energy             -0.719824587404
 
  RHF-UCCSD energy                   -123.340526113489
  RHF-UCCSD[T] energy                -123.362987672563
  RHF-UCCSD-T energy                 -123.361899302372
 !RHF-UCCSD(T) energy                -123.362050172118

 Program statistics:

 Available memory in ccsd:               511999000
 Min. memory needed in ccsd:               1445565
 Max. memory used in ccsd:                 2000723
 Max. memory used in cckext:               1544747 ( 9 integral passes)
 Max. memory used in cckint:               3789334 ( 1 integral passes)



 **********************************************************************************************************************************
 DATASETS  * FILE   NREC   LENGTH (MB)   RECORD NAMES
              1      21      166.53       500      610      700      900      950      970     1000      129      960     1100   
                                          VAR    BASINP    GEOM    SYMINP    ZMAT    AOBASIS   BASIS     P2S    ABASIS      S 
                                         1400     1410     1420     1200     1210     1080     1600     1650     1300     1700   
                                         EKIN       V       ECP      H0       H01     AOSYM     SMH    MOLCAS    ERIS     OPER   
                                         1380   
                                         JKOP   

              2       6        8.50       700     1000      520     4202     5202     2101   
                                         GEOM     BASIS   MCVARS     RHF     MCSCF     RHF  

 PROGRAMS   *        TOTAL  UCCSD(T)       RHF     MULTI       POP       RHF       INT
 CPU TIMES  *        51.85     36.57      0.11      1.46      0.00      1.46     12.10
 REAL TIME  *        66.56 SEC
 DISK USED  *       487.69 MB      
 **********************************************************************************************************************************
 SETTING POSTHF(I)      =      -123.36205017  AU                              
                                                                                                                                                                                                                                                                

         SCF            POSTHF       EKIN           POT
    -122.6422256   -123.3620502   71.85688334   -18.86606360
                                                  

 UCCSD(T)/USERDEF energy=   -123.362050172118

        UCCSD(T)        RHF-SCF         MULTI           RHF-SCF 
   -123.36205017   -122.64222558   -122.64222558   -122.64735217
 **********************************************************************************************************************************
 Variable memory released
