TACC:  Starting up job 3912546 
TACC:  Starting parallel tasks... 
  Input file(s): Se.log.qmc.in-wfj.xml 

=====================================================
                    QMCPACK 3.7.9

       (c) Copyright 2003-  QMCPACK developers

                    Please cite:
 J. Kim et al. J. Phys. Cond. Mat. 30 195901 (2018)
      https://doi.org/10.1088/1361-648X/aab9c3

  Git branch: develop
  Last git commit: 9a049a3fb3e0d7110d61a924a52203fd8296522a
  Last git commit date: Mon Jul 1 13:42:43 2019 -0500
  Last git commit subject: Merge pull request #1686 from ye-luo/rename-to-LCAOHDFParser
=====================================================
  Global options 

  Total number of MPI ranks = 1024
  Number of MPI groups      = 1
  MPI group ID              = 0
  Number of ranks in group  = 1024
  MPI ranks per node        = 64
  OMP 1st level threads     = 1
  OMP nested threading disabled or only 1 thread on the 2nd level

  Precision used in this calculation, see definitions in the manual:
  Base precision      = double
  Full precision      = double

  Structure-of-arrays (SoA) optimization enabled

  Input XML = Se.log.qmc.in-wfj.xml

  Project = Se.log
  date    = 2019-07-01 20:06:57 CDT
  host    = c417-003.stampede2.tacc.utexas.edu

 Random Number
 -------------
  Offset for the random number seeds based on time: 561

  Range of prime numbers to use as seeds over processors and threads = 4091-13381


 Particle Set 
 ------------
  Name: ion0
  All the species have the same mass 1
  Particle set size: 1

 Particle Set 
 ------------
  Name: e
  All the species have the same mass 1
  Particle set size: 6

 Wavefunction setup: 
 ------------------- 
  Name: psi0
  LCAO: SoaAtomicBasisSet<MultiQuintic,1>
Reading BasisSet from HDF5 file:Se.log.h5
<input node="atomicBasisSet" name="gaussian" expandYlm="pyscf" angular="spherical" elementType="Se" normalized="no" type="Numerical" expM="0" />
  AO BasisSet for Se
   Spherical Harmonics contain (-1)^m factor
   Angular momentum m expanded as -l, ... ,l, with the exception of L=1 (1,-1,0)
   Grid is created by the input paremters in h5
    Using log grid ri = 1e-06 rf = 100 npts = 1001
   R(n,l,m,s) 0 0 0 0
   R(n,l,m,s) 1 0 0 0
   R(n,l,m,s) 2 0 0 0
   R(n,l,m,s) 3 1 0 0
   R(n,l,m,s) 4 1 0 0
   R(n,l,m,s) 5 1 0 0
   R(n,l,m,s) 6 2 0 0
   R(n,l,m,s) 7 2 0 0
   R(n,l,m,s) 8 3 0 0
Expanding Ylm as L=1 as (1,-1,0) and L>1 as -l,-l+1,...,l-1,l
   Adding 1 spherical orbitals
   Adding 1 spherical orbitals
   Adding 1 spherical orbitals
   Adding 3 spherical orbitals
   Adding 3 spherical orbitals
   Adding 3 spherical orbitals
   Adding 5 spherical orbitals
   Adding 5 spherical orbitals
   Adding 7 spherical orbitals
  Setting cutoff radius 12.7057

   Maximum Angular Momentum  = 3
   Number of Radial functors = 9
   Basis size                = 29

  Created SPOSet builder named 'LCAOBSet' of type molecularorbital
Reuse SPOSetBuilder "LCAOBSet" type MolecularOrbital
  Building SPOSet '' with '' basis set.
Reuse SPOSetBuilder "LCAOBSet" type MolecularOrbital
  Building SPOSet '' with '' basis set.
  Creating a determinant updet group=0 sposet=updet
  Reusing a SPO set updet
Using DiracDeterminant with DelayedUpdate engine
Using rank-1 Sherman-Morrison Fahy update

  Creating a determinant downdet group=1 sposet=downdet
  Reusing a SPO set downdet
Using DiracDeterminant with DelayedUpdate engine
Using rank-1 Sherman-Morrison Fahy update

  FermionWF = SlaterDet

   Jastrow
   -------
    Name: J2   Type: Two-Body   Function: Bspline

    Radial function for species: u - u
     Number of parameters: 10
     Cusp: -0.25
     Cutoff radius: 10

     Name                        Value Type Recompute Use Index
     ---- ---------------------------- ---- --------- --- -----
     uu_0                 4.778877e-01    1         1  ON     0
     uu_1                 2.871977e-01    1         1  ON     1
     uu_2                 1.495607e-01    1         1  ON     2
     uu_3                 4.724563e-02    1         1  ON     3
     uu_4                -3.012590e-02    1         1  ON     4
     uu_5                -8.609004e-02    1         1  ON     5
     uu_6                -1.244199e-01    1         1  ON     6
     uu_7                -1.476898e-01    1         1  ON     7
     uu_8                -1.491183e-01    1         1  ON     8
     uu_9                -1.279949e-01    1         1  ON     9

    Radial function for species: u - d
     Number of parameters: 10
     Cusp: -0.5
     Cutoff radius: 10

     Name                        Value Type Recompute Use Index
     ---- ---------------------------- ---- --------- --- -----
     ud_0                 7.645726e-01    1         1  ON     0
     ud_1                 4.231301e-01    1         1  ON     1
     ud_2                 2.126472e-01    1         1  ON     2
     ud_3                 8.288765e-02    1         1  ON     3
     ud_4                -8.328072e-03    1         1  ON     4
     ud_5                -7.635877e-02    1         1  ON     5
     ud_6                -1.264412e-01    1         1  ON     6
     ud_7                -1.597833e-01    1         1  ON     7
     ud_8                -1.672236e-01    1         1  ON     8
     ud_9                -1.609800e-01    1         1  ON     9


   Jastrow
   -------
    Name: J1   Type: One-Body   Function: Bspline

    Radial function for element: Se
     Number of parameters: 10
     Cusp: 0
     Cutoff radius: 10

      Name                        Value Type Recompute Use Index
     ----- ---------------------------- ---- --------- --- -----
     eSe_0                -9.887370e-01    1         1  ON     0
     eSe_1                -8.029045e-01    1         1  ON     1
     eSe_2                -5.200863e-01    1         1  ON     2
     eSe_3                -1.626378e-01    1         1  ON     3
     eSe_4                 1.467086e-01    1         1  ON     4
     eSe_5                 3.986688e-01    1         1  ON     5
     eSe_6                 5.633958e-01    1         1  ON     6
     eSe_7                 6.259433e-01    1         1  ON     7
     eSe_8                 5.390786e-01    1         1  ON     8
     eSe_9                 2.013733e-01    1         1  ON     9


   Jastrow
   -------
    Name: J3   Type: eeI   Function: polynomial

     Ion: Se   electron-electron: u - u
      Number of parameters for e-e: 3, for e-I: 3
      Cutoff radius: 10

Expected 26 parameters, but found 0 in PolynomialFunctor3D.
         Name                        Value Type Recompute Use Index
      ------- ---------------------------- ---- --------- --- -----
       uuSe_0                 0.000000e+00    1         1  ON     0
       uuSe_1                 0.000000e+00    1         1  ON     1
       uuSe_2                 0.000000e+00    1         1  ON     2
       uuSe_3                 0.000000e+00    1         1  ON     3
       uuSe_4                 0.000000e+00    1         1  ON     4
       uuSe_5                 0.000000e+00    1         1  ON     5
       uuSe_6                 0.000000e+00    1         1  ON     6
       uuSe_7                 0.000000e+00    1         1  ON     7
       uuSe_8                 0.000000e+00    1         1  ON     8
       uuSe_9                 0.000000e+00    1         1  ON     9
      uuSe_10                 0.000000e+00    1         1  ON    10
      uuSe_11                 0.000000e+00    1         1  ON    11
      uuSe_12                 0.000000e+00    1         1  ON    12
      uuSe_13                 0.000000e+00    1         1  ON    13
      uuSe_14                 0.000000e+00    1         1  ON    14
      uuSe_15                 0.000000e+00    1         1  ON    15
      uuSe_16                 0.000000e+00    1         1  ON    16
      uuSe_17                 0.000000e+00    1         1  ON    17
      uuSe_18                 0.000000e+00    1         1  ON    18
      uuSe_19                 0.000000e+00    1         1  ON    19
      uuSe_20                 0.000000e+00    1         1  ON    20
      uuSe_21                 0.000000e+00    1         1  ON    21
      uuSe_22                 0.000000e+00    1         1  ON    22
      uuSe_23                 0.000000e+00    1         1  ON    23
      uuSe_24                 0.000000e+00    1         1  ON    24
      uuSe_25                 0.000000e+00    1         1  ON    25

     Ion: Se   electron-electron: u - d
      Number of parameters for e-e: 3, for e-I: 3
      Cutoff radius: 10

Expected 26 parameters, but found 0 in PolynomialFunctor3D.
         Name                        Value Type Recompute Use Index
      ------- ---------------------------- ---- --------- --- -----
       udSe_0                 0.000000e+00    1         1  ON     0
       udSe_1                 0.000000e+00    1         1  ON     1
       udSe_2                 0.000000e+00    1         1  ON     2
       udSe_3                 0.000000e+00    1         1  ON     3
       udSe_4                 0.000000e+00    1         1  ON     4
       udSe_5                 0.000000e+00    1         1  ON     5
       udSe_6                 0.000000e+00    1         1  ON     6
       udSe_7                 0.000000e+00    1         1  ON     7
       udSe_8                 0.000000e+00    1         1  ON     8
       udSe_9                 0.000000e+00    1         1  ON     9
      udSe_10                 0.000000e+00    1         1  ON    10
      udSe_11                 0.000000e+00    1         1  ON    11
      udSe_12                 0.000000e+00    1         1  ON    12
      udSe_13                 0.000000e+00    1         1  ON    13
      udSe_14                 0.000000e+00    1         1  ON    14
      udSe_15                 0.000000e+00    1         1  ON    15
      udSe_16                 0.000000e+00    1         1  ON    16
      udSe_17                 0.000000e+00    1         1  ON    17
      udSe_18                 0.000000e+00    1         1  ON    18
      udSe_19                 0.000000e+00    1         1  ON    19
      udSe_20                 0.000000e+00    1         1  ON    20
      udSe_21                 0.000000e+00    1         1  ON    21
      udSe_22                 0.000000e+00    1         1  ON    22
      udSe_23                 0.000000e+00    1         1  ON    23
      udSe_24                 0.000000e+00    1         1  ON    24
      udSe_25                 0.000000e+00    1         1  ON    25

  QMCHamiltonian::addOperator Kinetic to H, physical Hamiltonian 
  QMCHamiltonian::addOperator ElecElec to H, physical Hamiltonian 
QMCHamiltonian::addOperatorType added type coulomb named ElecElec
  CoulombAA for ion0 is not created.  Number of particles == 1 and nonPeriodic

  ECPotential builder for pseudopotential 

  Adding pseudopotential for Se
   Linear grid  ri=0 rf=10 npts = 10001
    ECPComponentBuilder::buildSemiLocalAndLocal 
    Assuming Hartree unit
   Number of angular momentum channels 4
   Maximum angular momentum channel 3
   Creating a Linear Grid Rmax=3.085
  Using global grid with delta = 0.001
   Making L=3 a local potential with a radial cutoff of 9.999
    Non-local pseudopotential parameters
    Maximum angular mementum = 2
    Number of non-local channels = 3
       l(0)=0
       l(1)=1
       l(2)=2
    Cutoff radius = 3.085
    Spherical grids and weights: 
                        1                 0                 0       0.08333333333
                       -1   1.224646799e-16                 0       0.08333333333
             0.4472135955       0.894427191                 0       0.08333333333
            -0.4472135955      0.7236067977      0.5257311121       0.08333333333
             0.4472135955      0.2763932023      0.8506508084       0.08333333333
            -0.4472135955     -0.2763932023      0.8506508084       0.08333333333
             0.4472135955     -0.7236067977      0.5257311121       0.08333333333
            -0.4472135955      -0.894427191   1.095357397e-16       0.08333333333
             0.4472135955     -0.7236067977     -0.5257311121       0.08333333333
            -0.4472135955     -0.2763932023     -0.8506508084       0.08333333333
             0.4472135955      0.2763932023     -0.8506508084       0.08333333333
            -0.4472135955      0.7236067977     -0.5257311121       0.08333333333
    Maximum cutoff radius 3.085
  QMCHamiltonian::addOperator LocalECP to H, physical Hamiltonian 

  Using NonLocalECP potential 
    Maximum grid on a sphere for NonLocalECPotential: 12
  QMCHamiltonian::addOperator NonLocalECP to H, physical Hamiltonian 
QMCHamiltonian::addOperatorType added type pseudo named PseudoPot

  QMCHamiltonian::add2WalkerProperty added
    4 to P::PropertyList 
    0 to P::Collectables 
    starting Index of the observables in P::PropertyList = 9
ParticleSetPool::randomize 
<init source="ion0" target="e">
</init>
  Initialization Execution time = 0.3699 secs
=========================================================
 Summary of QMC systems 
=========================================================
ParticleSetPool has: 

  ParticleSet 'e' contains 6 particles :  u(4) d(2)

    u -7.8588443114e-01 -5.3760828246e-01  8.3354039568e-01
    u  2.7201988874e-02 -1.0010009819e-01  1.0500884457e+00
    u  6.5309635298e-01 -8.4478932636e-01 -1.2655541396e-01
    u -1.3272076185e-01 -1.9823532827e-01  2.2640727577e-01
    d  1.7017221562e-01 -3.5577975201e-01  3.2260179062e-01
    d -1.2238900967e+00 -9.6639193693e-01 -9.8616853954e-01

  Distance table for dissimilar particles (A-B):
    source: ion0  target: e
    Using structure-of-arrays (SoA) data layout
    Distance computations use open boundary conditions in 3D.

  Distance table for similar particles (A-A):
    source/target: e
    Using structure-of-arrays (SoA) data layout
    Distance computations use open boundary conditions in 3D.


  ParticleSet 'ion0' contains 1 particles :  Se(1)

    Se  0.0000000000e+00  0.0000000000e+00  0.0000000000e+00


  Hamiltonian h0
  Kinetic         Kinetic energy
  ElecElec        CoulombAB source=e

  LocalECP        LocalECPotential: ion0
  NonLocalECP     NonLocalECPotential: ion0


=========================================================
  Start VMC
  File Root Se.log.s000 append = no 
=========================================================
  Adding 1 walkers to 0 existing sets
  Total number of walkers: 1.0240000000e+03
  Total weight: 1.0240000000e+03
  Resetting Properties of the walkers 1 x 13

<vmc function="put">
  qmc_counter=0  my_counter=0
  time step      = 1.5000000000e-01
  blocks         = 200
  steps          = 1
  substeps       = 5
  current        = 0
  target samples = 1.0240000000e+03
  walkers/mpi    = 1

  stepsbetweensamples = 200
<parameter name="blocks" condition="int">200</parameter>
<parameter name="blocks_between_recompute" condition="int">0</parameter>
<parameter name="check_properties" condition="int">100</parameter>
<parameter name="checkproperties" condition="int">100</parameter>
<parameter name="current" condition="int">0</parameter>
<parameter name="dmcwalkersperthread" condition="real">1.0000000000e+00</parameter>
<parameter name="maxcpusecs" condition="real">3.6000000000e+05</parameter>
<parameter name="record_configs" condition="int">0</parameter>
<parameter name="record_walkers" condition="int">200</parameter>
<parameter name="recordconfigs" condition="int">0</parameter>
<parameter name="recordwalkers" condition="int">200</parameter>
<parameter name="rewind" condition="int">0</parameter>
<parameter name="samples" condition="real">1.0240000000e+03</parameter>
<parameter name="samplesperthread" condition="real">1.0000000000e+00</parameter>
<parameter name="steps" condition="int">1</parameter>
<parameter name="stepsbetweensamples" condition="int">200</parameter>
<parameter name="store_configs" condition="int">0</parameter>
<parameter name="storeconfigs" condition="int">0</parameter>
<parameter name="sub_steps" condition="int">5</parameter>
<parameter name="substeps" condition="int">5</parameter>
<parameter name="tau" condition="au">1.5000000000e-01</parameter>
<parameter name="time_step" condition="au">1.5000000000e-01</parameter>
<parameter name="timestep" condition="au">1.5000000000e-01</parameter>
<parameter name="use_drift" condition="string">no</parameter>
<parameter name="usedrift" condition="string">no</parameter>
<parameter name="walkers" condition="int">1</parameter>
<parameter name="warmup_steps" condition="int">100</parameter>
<parameter name="warmupsteps" condition="int">100</parameter>
  DumpConfig==false Nothing (configurations, state) will be saved.
  Walker Samples are dumped every 200 steps.
</vmc>
  Set drift_modifier UNR parameter a = 1.0000000000e+00
  Initial partition of walkers 0 1 

  Using Particle by Particle moves
  Walker moves without drift
  Total Sample Size   =1024
  Walker distribution on root = 0 1 
  Using Locality Approximation
===== Memory Usage after the buffer registration =====
Available memory on node 0, free + buffers : 53588 MB
Memory footprint by rank 0 on node 0       : 575 MB
==================================================
  Anonymous Buffer size per walker : 2336 Bytes.
MEMORY increase 0 MB VMC::resetRun
====================================================
  SimpleFixedNodeBranch::finalize after a VMC block
    QMC counter        = 0
    time step          = 0.15
    reference energy   = -9.29208
    reference variance = 0.0441032
====================================================
  QMC Execution time = 2.1208e+00 secs
Loop execution max-interations = 20

=========================================================
  Start QMCFixedSampleLinearOptimize
  File Root Se.log.s001 append = no 
=========================================================
  Skip QMCDriver::putQMCInfo 
  Resetting Properties of the walkers 1 x 13

=========================================================
  Start VMC
  File Root Se.log.s001 append = no 
=========================================================
  Using the current 1 walkers.
  Total number of walkers: 1.0240e+03
  Total weight: 1.0240e+03
  Resetting Properties of the walkers 1 x 13

<vmc function="put">
  qmc_counter=0  my_counter=0
  time step      = 1.5000e-01
  blocks         = 500
  steps          = 1
  substeps       = 5
  current        = 0
  target samples = 5.1200e+05
  walkers/mpi    = 1

  stepsbetweensamples = 1
<parameter name="blocks" condition="int">500</parameter>
<parameter name="blocks_between_recompute" condition="int">0</parameter>
<parameter name="check_properties" condition="int">100</parameter>
<parameter name="checkproperties" condition="int">100</parameter>
<parameter name="current" condition="int">0</parameter>
<parameter name="dmcwalkersperthread" condition="real">5.0000e+02</parameter>
<parameter name="maxcpusecs" condition="real">3.6000e+05</parameter>
<parameter name="record_configs" condition="int">0</parameter>
<parameter name="record_walkers" condition="int">1</parameter>
<parameter name="recordconfigs" condition="int">0</parameter>
<parameter name="recordwalkers" condition="int">1</parameter>
<parameter name="rewind" condition="int">0</parameter>
<parameter name="samples" condition="real">5.1200e+05</parameter>
<parameter name="samplesperthread" condition="real">5.0000e+02</parameter>
<parameter name="steps" condition="int">1</parameter>
<parameter name="stepsbetweensamples" condition="int">1</parameter>
<parameter name="store_configs" condition="int">0</parameter>
<parameter name="storeconfigs" condition="int">0</parameter>
<parameter name="sub_steps" condition="int">5</parameter>
<parameter name="substeps" condition="int">5</parameter>
<parameter name="tau" condition="au">1.5000e-01</parameter>
<parameter name="time_step" condition="au">1.5000e-01</parameter>
<parameter name="timestep" condition="au">1.5000e-01</parameter>
<parameter name="use_drift" condition="string">no</parameter>
<parameter name="usedrift" condition="string">no</parameter>
<parameter name="walkers" condition="int">1</parameter>
<parameter name="warmup_steps" condition="int">0</parameter>
<parameter name="warmupsteps" condition="int">0</parameter>
  DumpConfig==false Nothing (configurations, state) will be saved.
  Walker Samples are dumped every 1 steps.
</vmc>
    Restarting, cummulative properties:
      energy     = -9.2921e+00
      variance   = 0.0000e+00
      r2accepted = 1.0000e-10
      r2proposed = 1.0000e-10
  Set drift_modifier UNR parameter a = 1.0000e+00
 Using QMCCostFunction::QMCCostFunction
  Set drift_modifier UNR parameter a = 1.0000e+00
  EstimatorManagerBase::add replace LocalEnergy estimator.
<optimization-report>
<vmc stage="main" blocks="500">
  Cannot make clones again. Use existing 1 clones
  Initial partition of walkers 0 1 

  Using Particle by Particle moves
  Walker moves without drift
  Total Sample Size   =512000
  Walker distribution on root = 0 1 
  Using Locality Approximation
===== Memory Usage after the buffer registration =====
Available memory on node 0, free + buffers : 53563 MB
Memory footprint by rank 0 on node 0       : 576 MB
==================================================
  Anonymous Buffer size per walker : 2336 Bytes.
MEMORY increase 0 MB VMC::resetRun
====================================================
  SimpleFixedNodeBranch::finalize after a VMC block
    QMC counter        = 1
    time step          = 0.15
    reference energy   = -9.29656
    reference variance = 0.0620408
====================================================
  Execution time = 3.9198e+00
</vmc>
<opt stage="setup">
  <log>
   Reading configurations from h5FileRoot Se.log.s001
  QMCCostFunction is created with 1 threads.
  Using Nonlocal PP in Opt: NonLocalECP
   Number of samples loaded to each thread : 500 
  VMC Eavg = -9.2842e+00
  VMC Evar = 3.0758e-01
  Total weights = 5.1200e+05
  Execution time = 1.2602e+00
  </log>
</opt>
<opt stage="main" walkers="512000">
  <log>

*****************************************
Building overlap and Hamiltonian matrices
*****************************************

Among totally 82 optimized parameters, largest LM parameter change : 4.3619e-02 at parameter 24

******************************************************************************
Init Cost =  -8.8046e+00    New Cost =  -8.8093e+00  Delta Cost =  -4.6627e-03
******************************************************************************

The new set of parameters is valid. Updating the trial wave function!

*****************************************************************************
Applying the update for shift_i =   1.0000e-02     and shift_s =   2.5000e-01
*****************************************************************************
  Execution time = 6.4081e+00
  </log>
  <optVariables href="Se.log.s001.opt.xml">
   uu_0                 4.670277e-01 1 1  ON 0
   uu_1                 2.704166e-01 1 1  ON 1
   uu_2                 1.376607e-01 1 1  ON 2
   uu_3                 4.176885e-02 1 1  ON 3
   uu_4                -2.400913e-02 1 1  ON 4
   uu_5                -7.534627e-02 1 1  ON 5
   uu_6                -1.100406e-01 1 1  ON 6
   uu_7                -1.328081e-01 1 1  ON 7
   uu_8                -1.393264e-01 1 1  ON 8
   uu_9                -1.194098e-01 1 1  ON 9
   ud_0                 7.911220e-01 1 1  ON 10
   ud_1                 4.382890e-01 1 1  ON 11
   ud_2                 2.193479e-01 1 1  ON 12
   ud_3                 7.781720e-02 1 1  ON 13
   ud_4                -7.496182e-03 1 1  ON 14
   ud_5                -7.257579e-02 1 1  ON 15
   ud_6                -1.211464e-01 1 1  ON 16
   ud_7                -1.571234e-01 1 1  ON 17
   ud_8                -1.688993e-01 1 1  ON 18
   ud_9                -1.585689e-01 1 1  ON 19
  eSe_0                -9.996947e-01 1 1  ON 20
  eSe_1                -7.906370e-01 1 1  ON 21
  eSe_2                -5.573165e-01 1 1  ON 22
  eSe_3                -1.749615e-01 1 1  ON 23
  eSe_4                 1.903271e-01 1 1  ON 24
  eSe_5                 3.819580e-01 1 1  ON 25
  eSe_6                 5.570080e-01 1 1  ON 26
  eSe_7                 6.235065e-01 1 1  ON 27
  eSe_8                 5.516916e-01 1 1  ON 28
  eSe_9                 2.191592e-01 1 1  ON 29
 uuSe_0                -3.647807e-05 1 1  ON 30
 uuSe_1                 5.152356e-05 1 1  ON 31
 uuSe_2                 6.225253e-05 1 1  ON 32
 uuSe_3                 1.229766e-05 1 1  ON 33
 uuSe_4                -1.287677e-05 1 1  ON 34
 uuSe_5                -1.671180e-06 1 1  ON 35
 uuSe_6                 1.515922e-04 1 1  ON 36
 uuSe_7                -8.817206e-06 1 1  ON 37
 uuSe_8                 3.277132e-05 1 1  ON 38
 uuSe_9                -8.317314e-05 1 1  ON 39
uuSe_10                -5.685433e-06 1 1  ON 40
uuSe_11                -1.823014e-05 1 1  ON 41
uuSe_12                -9.326366e-06 1 1  ON 42
uuSe_13                -6.100426e-06 1 1  ON 43
uuSe_14                 2.426883e-06 1 1  ON 44
uuSe_15                 6.359479e-07 1 1  ON 45
uuSe_16                 1.010278e-04 1 1  ON 46
uuSe_17                -2.389775e-05 1 1  ON 47
uuSe_18                 6.848590e-06 1 1  ON 48
uuSe_19                 4.322149e-06 1 1  ON 49
uuSe_20                -1.510961e-05 1 1  ON 50
uuSe_21                 3.234779e-07 1 1  ON 51
uuSe_22                -5.967188e-07 1 1  ON 52
uuSe_23                 5.184637e-06 1 1  ON 53
uuSe_24                -4.675689e-07 1 1  ON 54
uuSe_25                 1.265980e-07 1 1  ON 55
 udSe_0                -4.437857e-05 1 1  ON 56
 udSe_1                 5.891293e-05 1 1  ON 57
 udSe_2                 5.617899e-05 1 1  ON 58
 udSe_3                 6.582679e-05 1 1  ON 59
 udSe_4                 4.185819e-06 1 1  ON 60
 udSe_5                -6.130369e-06 1 1  ON 61
 udSe_6                 2.131200e-04 1 1  ON 62
 udSe_7                -2.601285e-05 1 1  ON 63
 udSe_8                -3.184006e-05 1 1  ON 64
 udSe_9                -1.290960e-04 1 1  ON 65
udSe_10                 3.086929e-05 1 1  ON 66
udSe_11                -1.317501e-06 1 1  ON 67
udSe_12                 1.481241e-05 1 1  ON 68
udSe_13                -6.961202e-05 1 1  ON 69
udSe_14                -2.052811e-05 1 1  ON 70
udSe_15                 4.647138e-07 1 1  ON 71
udSe_16                 1.999866e-04 1 1  ON 72
udSe_17                -1.164295e-04 1 1  ON 73
udSe_18                 1.117878e-05 1 1  ON 74
udSe_19                -5.704323e-06 1 1  ON 75
udSe_20                -8.012096e-06 1 1  ON 76
udSe_21                 5.369326e-06 1 1  ON 77
udSe_22                -2.917599e-07 1 1  ON 78
udSe_23                 2.252872e-06 1 1  ON 79
udSe_24                -1.213794e-06 1 1  ON 80
udSe_25                 1.619322e-07 1 1  ON 81
  </optVariables>
   Restore the number of walkers to 1, removing 0 walkers.
</opt>
</optimization-report>
  QMC Execution time = 6.421 secs
  Reusing QMCFixedSampleLinearOptimize
 Using QMCCostFunction::QMCCostFunction

=========================================================
  Start QMCFixedSampleLinearOptimize
  File Root Se.log.s002 append = no 
=========================================================
  Skip QMCDriver::putQMCInfo 
  Resetting Properties of the walkers 1 x 13

=========================================================
  Start VMC
  File Root Se.log.s002 append = no 
=========================================================
Using existing walkers 
  Resetting Properties of the walkers 1 x 13

<vmc function="put">
  qmc_counter=1  my_counter=1
  time step      = 1.5000e-01
  blocks         = 500
  steps          = 1
  substeps       = 5
  current        = 0
  target samples = 5.1200e+05
  walkers/mpi    = 1

  stepsbetweensamples = 1
<parameter name="blocks" condition="int">500</parameter>
<parameter name="blocks_between_recompute" condition="int">0</parameter>
<parameter name="check_properties" condition="int">100</parameter>
<parameter name="checkproperties" condition="int">100</parameter>
<parameter name="current" condition="int">0</parameter>
<parameter name="dmcwalkersperthread" condition="real">5.0000e+02</parameter>
<parameter name="maxcpusecs" condition="real">3.6000e+05</parameter>
<parameter name="record_configs" condition="int">0</parameter>
<parameter name="record_walkers" condition="int">1</parameter>
<parameter name="recordconfigs" condition="int">0</parameter>
<parameter name="recordwalkers" condition="int">1</parameter>
<parameter name="rewind" condition="int">0</parameter>
<parameter name="samples" condition="real">5.1200e+05</parameter>
<parameter name="samplesperthread" condition="real">5.0000e+02</parameter>
<parameter name="steps" condition="int">1</parameter>
<parameter name="stepsbetweensamples" condition="int">1</parameter>
<parameter name="store_configs" condition="int">0</parameter>
<parameter name="storeconfigs" condition="int">0</parameter>
<parameter name="sub_steps" condition="int">5</parameter>
<parameter name="substeps" condition="int">5</parameter>
<parameter name="tau" condition="au">1.5000e-01</parameter>
<parameter name="time_step" condition="au">1.5000e-01</parameter>
<parameter name="timestep" condition="au">1.5000e-01</parameter>
<parameter name="use_drift" condition="string">no</parameter>
<parameter name="usedrift" condition="string">no</parameter>
<parameter name="walkers" condition="int">1</parameter>
<parameter name="warmup_steps" condition="int">0</parameter>
<parameter name="warmupsteps" condition="int">0</parameter>
  DumpConfig==false Nothing (configurations, state) will be saved.
  Walker Samples are dumped every 1 steps.
</vmc>
  Set drift_modifier UNR parameter a = 1.0000e+00
  EstimatorManagerBase::add replace LocalEnergy estimator.
  Set drift_modifier UNR parameter a = 1.0000e+00
  EstimatorManagerBase::add replace LocalEnergy estimator.
<optimization-report>
<vmc stage="main" blocks="500">
  Cannot make clones again. Use existing 1 clones
  Initial partition of walkers 0 1 
  Using Particle by Particle moves
  Walker moves without drift
  Total Sample Size   =512000
  Walker distribution on root = 0 1 
  Using Locality Approximation
===== Memory Usage after the buffer registration =====
Available memory on node 0, free + buffers : 52864 MB
Memory footprint by rank 0 on node 0       : 592 MB
==================================================
====================================================
  SimpleFixedNodeBranch::finalize after a VMC block
    QMC counter        = 2
    time step          = 0.15
    reference energy   = -9.29428
    reference variance = 0.0271992
====================================================
  Execution time = 3.8739e+00
</vmc>
<opt stage="setup">
  <log>
   Reading configurations from h5FileRoot Se.log.s002
  QMCCostFunction is created with 1 threads.
  Using Nonlocal PP in Opt: NonLocalECP
   Number of samples loaded to each thread : 500 
  VMC Eavg = -9.2862e+00
  VMC Evar = 2.9216e-01
  Total weights = 5.1200e+05
  Execution time = 1.2472e+00
  </log>
</opt>
<opt stage="main" walkers="512000">
  <log>

*****************************************
Building overlap and Hamiltonian matrices
*****************************************

Among totally 82 optimized parameters, largest LM parameter change : 2.5729e-02 at parameter 22

******************************************************************************
Init Cost =  -8.8072e+00    New Cost =  -8.8079e+00  Delta Cost =  -7.0008e-04
******************************************************************************

The new set of parameters is valid. Updating the trial wave function!

*****************************************************************************
Applying the update for shift_i =   1.0000e-02     and shift_s =   6.2500e-02
*****************************************************************************
  Execution time = 6.2912e+00
  </log>
  <optVariables href="Se.log.s002.opt.xml">
   uu_0                 4.539714e-01 1 1  ON 0
   uu_1                 2.583527e-01 1 1  ON 1
   uu_2                 1.318628e-01 1 1  ON 2
   uu_3                 4.245304e-02 1 1  ON 3
   uu_4                -1.720393e-02 1 1  ON 4
   uu_5                -6.531867e-02 1 1  ON 5
   uu_6                -9.975099e-02 1 1  ON 6
   uu_7                -1.213416e-01 1 1  ON 7
   uu_8                -1.281316e-01 1 1  ON 8
   uu_9                -1.139442e-01 1 1  ON 9
   ud_0                 8.055908e-01 1 1  ON 10
   ud_1                 4.452714e-01 1 1  ON 11
   ud_2                 2.210381e-01 1 1  ON 12
   ud_3                 7.542705e-02 1 1  ON 13
   ud_4                -8.194757e-03 1 1  ON 14
   ud_5                -7.176820e-02 1 1  ON 15
   ud_6                -1.182351e-01 1 1  ON 16
   ud_7                -1.517526e-01 1 1  ON 17
   ud_8                -1.638060e-01 1 1  ON 18
   ud_9                -1.523220e-01 1 1  ON 19
  eSe_0                -9.946478e-01 1 1  ON 20
  eSe_1                -7.974685e-01 1 1  ON 21
  eSe_2                -5.830460e-01 1 1  ON 22
  eSe_3                -1.908256e-01 1 1  ON 23
  eSe_4                 2.117923e-01 1 1  ON 24
  eSe_5                 3.793324e-01 1 1  ON 25
  eSe_6                 5.535740e-01 1 1  ON 26
  eSe_7                 6.254325e-01 1 1  ON 27
  eSe_8                 5.608772e-01 1 1  ON 28
  eSe_9                 2.333850e-01 1 1  ON 29
 uuSe_0                -4.543217e-05 1 1  ON 30
 uuSe_1                 5.658057e-05 1 1  ON 31
 uuSe_2                 7.518264e-05 1 1  ON 32
 uuSe_3                 2.274738e-05 1 1  ON 33
 uuSe_4                -1.389379e-05 1 1  ON 34
 uuSe_5                -1.355792e-06 1 1  ON 35
 uuSe_6                 1.768005e-04 1 1  ON 36
 uuSe_7                -5.034610e-06 1 1  ON 37
 uuSe_8                 3.661498e-05 1 1  ON 38
 uuSe_9                -9.511034e-05 1 1  ON 39
uuSe_10                -4.338384e-07 1 1  ON 40
uuSe_11                -2.866897e-05 1 1  ON 41
uuSe_12                -9.764953e-06 1 1  ON 42
uuSe_13                -1.861677e-05 1 1  ON 43
uuSe_14                 1.835462e-06 1 1  ON 44
uuSe_15                 7.414859e-07 1 1  ON 45
uuSe_16                 1.238226e-04 1 1  ON 46
uuSe_17                -4.407720e-05 1 1  ON 47
uuSe_18                 1.733889e-05 1 1  ON 48
uuSe_19                 3.955831e-06 1 1  ON 49
uuSe_20                -1.392063e-05 1 1  ON 50
uuSe_21                -6.707488e-07 1 1  ON 51
uuSe_22                -5.382024e-07 1 1  ON 52
uuSe_23                 4.975017e-06 1 1  ON 53
uuSe_24                -3.242730e-07 1 1  ON 54
uuSe_25                 1.117147e-07 1 1  ON 55
 udSe_0                -5.909537e-05 1 1  ON 56
 udSe_1                 5.678941e-05 1 1  ON 57
 udSe_2                 5.592862e-05 1 1  ON 58
 udSe_3                 7.938230e-05 1 1  ON 59
 udSe_4                 5.783648e-06 1 1  ON 60
 udSe_5                -8.273852e-06 1 1  ON 61
 udSe_6                 2.189606e-04 1 1  ON 62
 udSe_7                -1.631205e-05 1 1  ON 63
 udSe_8                -4.369579e-05 1 1  ON 64
 udSe_9                -1.139388e-04 1 1  ON 65
udSe_10                 3.591924e-05 1 1  ON 66
udSe_11                 3.135868e-06 1 1  ON 67
udSe_12                 1.777259e-05 1 1  ON 68
udSe_13                -9.417616e-05 1 1  ON 69
udSe_14                -2.339810e-05 1 1  ON 70
udSe_15                 4.370360e-07 1 1  ON 71
udSe_16                 1.824519e-04 1 1  ON 72
udSe_17                -1.323301e-04 1 1  ON 73
udSe_18                 1.095832e-05 1 1  ON 74
udSe_19                -6.421409e-06 1 1  ON 75
udSe_20                 6.081333e-06 1 1  ON 76
udSe_21                 5.218164e-06 1 1  ON 77
udSe_22                -2.369487e-07 1 1  ON 78
udSe_23                -1.797306e-06 1 1  ON 79
udSe_24                -8.975986e-07 1 1  ON 80
udSe_25                 1.252872e-07 1 1  ON 81
  </optVariables>
   Restore the number of walkers to 1, removing 0 walkers.
</opt>
</optimization-report>
  QMC Execution time = 6.303 secs
  Reusing QMCFixedSampleLinearOptimize
 Using QMCCostFunction::QMCCostFunction

=========================================================
  Start QMCFixedSampleLinearOptimize
  File Root Se.log.s003 append = no 
=========================================================
  Skip QMCDriver::putQMCInfo 
  Resetting Properties of the walkers 1 x 13

=========================================================
  Start VMC
  File Root Se.log.s003 append = no 
=========================================================
Using existing walkers 
  Resetting Properties of the walkers 1 x 13

<vmc function="put">
  qmc_counter=2  my_counter=2
  time step      = 1.5000e-01
  blocks         = 500
  steps          = 1
  substeps       = 5
  current        = 0
  target samples = 5.1200e+05
  walkers/mpi    = 1

  stepsbetweensamples = 1
<parameter name="blocks" condition="int">500</parameter>
<parameter name="blocks_between_recompute" condition="int">0</parameter>
<parameter name="check_properties" condition="int">100</parameter>
<parameter name="checkproperties" condition="int">100</parameter>
<parameter name="current" condition="int">0</parameter>
<parameter name="dmcwalkersperthread" condition="real">5.0000e+02</parameter>
<parameter name="maxcpusecs" condition="real">3.6000e+05</parameter>
<parameter name="record_configs" condition="int">0</parameter>
<parameter name="record_walkers" condition="int">1</parameter>
<parameter name="recordconfigs" condition="int">0</parameter>
<parameter name="recordwalkers" condition="int">1</parameter>
<parameter name="rewind" condition="int">0</parameter>
<parameter name="samples" condition="real">5.1200e+05</parameter>
<parameter name="samplesperthread" condition="real">5.0000e+02</parameter>
<parameter name="steps" condition="int">1</parameter>
<parameter name="stepsbetweensamples" condition="int">1</parameter>
<parameter name="store_configs" condition="int">0</parameter>
<parameter name="storeconfigs" condition="int">0</parameter>
<parameter name="sub_steps" condition="int">5</parameter>
<parameter name="substeps" condition="int">5</parameter>
<parameter name="tau" condition="au">1.5000e-01</parameter>
<parameter name="time_step" condition="au">1.5000e-01</parameter>
<parameter name="timestep" condition="au">1.5000e-01</parameter>
<parameter name="use_drift" condition="string">no</parameter>
<parameter name="usedrift" condition="string">no</parameter>
<parameter name="walkers" condition="int">1</parameter>
<parameter name="warmup_steps" condition="int">0</parameter>
<parameter name="warmupsteps" condition="int">0</parameter>
  DumpConfig==false Nothing (configurations, state) will be saved.
  Walker Samples are dumped every 1 steps.
</vmc>
  Set drift_modifier UNR parameter a = 1.0000e+00
  EstimatorManagerBase::add replace LocalEnergy estimator.
  Set drift_modifier UNR parameter a = 1.0000e+00
  EstimatorManagerBase::add replace LocalEnergy estimator.
<optimization-report>
<vmc stage="main" blocks="500">
  Cannot make clones again. Use existing 1 clones
  Initial partition of walkers 0 1 
  Using Particle by Particle moves
  Walker moves without drift
  Total Sample Size   =512000
  Walker distribution on root = 0 1 
  Using Locality Approximation
===== Memory Usage after the buffer registration =====
Available memory on node 0, free + buffers : 52860 MB
Memory footprint by rank 0 on node 0       : 595 MB
==================================================
====================================================
  SimpleFixedNodeBranch::finalize after a VMC block
    QMC counter        = 3
    time step          = 0.15
    reference energy   = -9.28851
    reference variance = 0.0304249
====================================================
  Execution time = 3.8605e+00
</vmc>
<opt stage="setup">
  <log>
   Reading configurations from h5FileRoot Se.log.s003
  QMCCostFunction is created with 1 threads.
  Using Nonlocal PP in Opt: NonLocalECP
   Number of samples loaded to each thread : 500 
  VMC Eavg = -9.2869e+00
  VMC Evar = 2.9857e-01
  Total weights = 5.1200e+05
  Execution time = 1.2409e+00
  </log>
</opt>
<opt stage="main" walkers="512000">
  <log>

*****************************************
Building overlap and Hamiltonian matrices
*****************************************

Among totally 82 optimized parameters, largest LM parameter change : 1.9008e-02 at parameter 22

******************************************************************************
Init Cost =  -8.8076e+00    New Cost =  -8.8077e+00  Delta Cost =  -5.2026e-05
******************************************************************************

The new set of parameters is valid. Updating the trial wave function!

*****************************************************************************
Applying the update for shift_i =   1.0000e-02     and shift_s =   1.5625e-02
*****************************************************************************
  Execution time = 6.2799e+00
  </log>
  <optVariables href="Se.log.s003.opt.xml">
   uu_0                 4.443560e-01 1 1  ON 0
   uu_1                 2.484268e-01 1 1  ON 1
   uu_2                 1.264051e-01 1 1  ON 2
   uu_3                 4.252026e-02 1 1  ON 3
   uu_4                -1.272489e-02 1 1  ON 4
   uu_5                -5.941259e-02 1 1  ON 5
   uu_6                -9.340265e-02 1 1  ON 6
   uu_7                -1.161269e-01 1 1  ON 7
   uu_8                -1.219472e-01 1 1  ON 8
   uu_9                -1.070383e-01 1 1  ON 9
   ud_0                 8.170697e-01 1 1  ON 10
   ud_1                 4.559912e-01 1 1  ON 11
   ud_2                 2.273457e-01 1 1  ON 12
   ud_3                 7.890929e-02 1 1  ON 13
   ud_4                -4.794694e-03 1 1  ON 14
   ud_5                -6.805672e-02 1 1  ON 15
   ud_6                -1.140417e-01 1 1  ON 16
   ud_7                -1.499384e-01 1 1  ON 17
   ud_8                -1.663351e-01 1 1  ON 18
   ud_9                -1.531013e-01 1 1  ON 19
  eSe_0                -9.983644e-01 1 1  ON 20
  eSe_1                -8.076453e-01 1 1  ON 21
  eSe_2                -6.020541e-01 1 1  ON 22
  eSe_3                -1.984612e-01 1 1  ON 23
  eSe_4                 2.243650e-01 1 1  ON 24
  eSe_5                 3.734418e-01 1 1  ON 25
  eSe_6                 5.492967e-01 1 1  ON 26
  eSe_7                 6.323373e-01 1 1  ON 27
  eSe_8                 5.767071e-01 1 1  ON 28
  eSe_9                 2.473098e-01 1 1  ON 29
 uuSe_0                -3.999591e-05 1 1  ON 30
 uuSe_1                 3.125835e-05 1 1  ON 31
 uuSe_2                 6.506146e-05 1 1  ON 32
 uuSe_3                 3.797369e-05 1 1  ON 33
 uuSe_4                -7.831630e-06 1 1  ON 34
 uuSe_5                 1.192012e-06 1 1  ON 35
 uuSe_6                 1.281962e-04 1 1  ON 36
 uuSe_7                 2.340463e-05 1 1  ON 37
 uuSe_8                 2.862619e-05 1 1  ON 38
 uuSe_9                -7.327743e-05 1 1  ON 39
uuSe_10                 1.581773e-05 1 1  ON 40
uuSe_11                -4.630453e-05 1 1  ON 41
uuSe_12                -4.973309e-06 1 1  ON 42
uuSe_13                -3.520998e-05 1 1  ON 43
uuSe_14                 1.012170e-06 1 1  ON 44
uuSe_15                 3.714783e-07 1 1  ON 45
uuSe_16                 1.078369e-04 1 1  ON 46
uuSe_17                -6.388956e-05 1 1  ON 47
uuSe_18                 3.681016e-05 1 1  ON 48
uuSe_19                -3.460463e-08 1 1  ON 49
uuSe_20                -6.108186e-06 1 1  ON 50
uuSe_21                -3.722800e-06 1 1  ON 51
uuSe_22                 1.524802e-07 1 1  ON 52
uuSe_23                 3.271963e-06 1 1  ON 53
uuSe_24                 4.278253e-07 1 1  ON 54
uuSe_25                -4.873664e-08 1 1  ON 55
 udSe_0                -6.642808e-05 1 1  ON 56
 udSe_1                 4.192592e-05 1 1  ON 57
 udSe_2                 6.053014e-05 1 1  ON 58
 udSe_3                 9.687812e-05 1 1  ON 59
 udSe_4                 8.225352e-06 1 1  ON 60
 udSe_5                -6.686333e-06 1 1  ON 61
 udSe_6                 2.206213e-04 1 1  ON 62
 udSe_7                -9.981976e-06 1 1  ON 63
 udSe_8                -5.191172e-05 1 1  ON 64
 udSe_9                -1.155408e-04 1 1  ON 65
udSe_10                 4.661491e-05 1 1  ON 66
udSe_11                -9.089549e-07 1 1  ON 67
udSe_12                 2.119568e-05 1 1  ON 68
udSe_13                -1.133426e-04 1 1  ON 69
udSe_14                -2.696010e-05 1 1  ON 70
udSe_15                 4.491650e-07 1 1  ON 71
udSe_16                 2.021869e-04 1 1  ON 72
udSe_17                -1.564608e-04 1 1  ON 73
udSe_18                 1.649874e-05 1 1  ON 74
udSe_19                -8.062408e-06 1 1  ON 75
udSe_20                 9.023222e-06 1 1  ON 76
udSe_21                 5.493655e-06 1 1  ON 77
udSe_22                -1.456139e-07 1 1  ON 78
udSe_23                -2.606861e-06 1 1  ON 79
udSe_24                -9.033371e-07 1 1  ON 80
udSe_25                 1.096855e-07 1 1  ON 81
  </optVariables>
   Restore the number of walkers to 1, removing 0 walkers.
</opt>
</optimization-report>
  QMC Execution time = 6.292 secs
  Reusing QMCFixedSampleLinearOptimize
 Using QMCCostFunction::QMCCostFunction

=========================================================
  Start QMCFixedSampleLinearOptimize
  File Root Se.log.s004 append = no 
=========================================================
  Skip QMCDriver::putQMCInfo 
  Resetting Properties of the walkers 1 x 13

=========================================================
  Start VMC
  File Root Se.log.s004 append = no 
=========================================================
Using existing walkers 
  Resetting Properties of the walkers 1 x 13

<vmc function="put">
  qmc_counter=3  my_counter=3
  time step      = 1.5000e-01
  blocks         = 500
  steps          = 1
  substeps       = 5
  current        = 0
  target samples = 5.1200e+05
  walkers/mpi    = 1

  stepsbetweensamples = 1
<parameter name="blocks" condition="int">500</parameter>
<parameter name="blocks_between_recompute" condition="int">0</parameter>
<parameter name="check_properties" condition="int">100</parameter>
<parameter name="checkproperties" condition="int">100</parameter>
<parameter name="current" condition="int">0</parameter>
<parameter name="dmcwalkersperthread" condition="real">5.0000e+02</parameter>
<parameter name="maxcpusecs" condition="real">3.6000e+05</parameter>
<parameter name="record_configs" condition="int">0</parameter>
<parameter name="record_walkers" condition="int">1</parameter>
<parameter name="recordconfigs" condition="int">0</parameter>
<parameter name="recordwalkers" condition="int">1</parameter>
<parameter name="rewind" condition="int">0</parameter>
<parameter name="samples" condition="real">5.1200e+05</parameter>
<parameter name="samplesperthread" condition="real">5.0000e+02</parameter>
<parameter name="steps" condition="int">1</parameter>
<parameter name="stepsbetweensamples" condition="int">1</parameter>
<parameter name="store_configs" condition="int">0</parameter>
<parameter name="storeconfigs" condition="int">0</parameter>
<parameter name="sub_steps" condition="int">5</parameter>
<parameter name="substeps" condition="int">5</parameter>
<parameter name="tau" condition="au">1.5000e-01</parameter>
<parameter name="time_step" condition="au">1.5000e-01</parameter>
<parameter name="timestep" condition="au">1.5000e-01</parameter>
<parameter name="use_drift" condition="string">no</parameter>
<parameter name="usedrift" condition="string">no</parameter>
<parameter name="walkers" condition="int">1</parameter>
<parameter name="warmup_steps" condition="int">0</parameter>
<parameter name="warmupsteps" condition="int">0</parameter>
  DumpConfig==false Nothing (configurations, state) will be saved.
  Walker Samples are dumped every 1 steps.
</vmc>
  Set drift_modifier UNR parameter a = 1.0000e+00
  EstimatorManagerBase::add replace LocalEnergy estimator.
  Set drift_modifier UNR parameter a = 1.0000e+00
  EstimatorManagerBase::add replace LocalEnergy estimator.
<optimization-report>
<vmc stage="main" blocks="500">
  Cannot make clones again. Use existing 1 clones
  Initial partition of walkers 0 1 
  Using Particle by Particle moves
  Walker moves without drift
  Total Sample Size   =512000
  Walker distribution on root = 0 1 
  Using Locality Approximation
===== Memory Usage after the buffer registration =====
Available memory on node 0, free + buffers : 52857 MB
Memory footprint by rank 0 on node 0       : 598 MB
==================================================
====================================================
  SimpleFixedNodeBranch::finalize after a VMC block
    QMC counter        = 4
    time step          = 0.15
    reference energy   = -9.29945
    reference variance = 0.0281102
====================================================
  Execution time = 3.8578e+00
</vmc>
<opt stage="setup">
  <log>
   Reading configurations from h5FileRoot Se.log.s004
  QMCCostFunction is created with 1 threads.
  Using Nonlocal PP in Opt: NonLocalECP
   Number of samples loaded to each thread : 500 
  VMC Eavg = -9.2881e+00
  VMC Evar = 2.8399e-01
  Total weights = 5.1200e+05
  Execution time = 1.2350e+00
  </log>
</opt>
<opt stage="main" walkers="512000">
  <log>

*****************************************
Building overlap and Hamiltonian matrices
*****************************************

Among totally 82 optimized parameters, largest LM parameter change : 1.8867e-02 at parameter 22

******************************************************************************
Init Cost =  -8.8095e+00    New Cost =  -8.8095e+00  Delta Cost =  -7.0365e-05
******************************************************************************

The new set of parameters is valid. Updating the trial wave function!

*****************************************************************************
Applying the update for shift_i =   1.0000e-02     and shift_s =   3.9062e-03
*****************************************************************************
  Execution time = 6.2749e+00
  </log>
  <optVariables href="Se.log.s004.opt.xml">
   uu_0                 4.329199e-01 1 1  ON 0
   uu_1                 2.435294e-01 1 1  ON 1
   uu_2                 1.258026e-01 1 1  ON 2
   uu_3                 4.683889e-02 1 1  ON 3
   uu_4                -7.360811e-03 1 1  ON 4
   uu_5                -5.272065e-02 1 1  ON 5
   uu_6                -8.784209e-02 1 1  ON 6
   uu_7                -1.131644e-01 1 1  ON 7
   uu_8                -1.232392e-01 1 1  ON 8
   uu_9                -1.066782e-01 1 1  ON 9
   ud_0                 8.191191e-01 1 1  ON 10
   ud_1                 4.545883e-01 1 1  ON 11
   ud_2                 2.261129e-01 1 1  ON 12
   ud_3                 7.791738e-02 1 1  ON 13
   ud_4                -4.392057e-03 1 1  ON 14
   ud_5                -6.431517e-02 1 1  ON 15
   ud_6                -1.080491e-01 1 1  ON 16
   ud_7                -1.432740e-01 1 1  ON 17
   ud_8                -1.553592e-01 1 1  ON 18
   ud_9                -1.468802e-01 1 1  ON 19
  eSe_0                -9.959224e-01 1 1  ON 20
  eSe_1                -8.161949e-01 1 1  ON 21
  eSe_2                -6.209214e-01 1 1  ON 22
  eSe_3                -2.093246e-01 1 1  ON 23
  eSe_4                 2.254056e-01 1 1  ON 24
  eSe_5                 3.719698e-01 1 1  ON 25
  eSe_6                 5.514183e-01 1 1  ON 26
  eSe_7                 6.326817e-01 1 1  ON 27
  eSe_8                 5.852200e-01 1 1  ON 28
  eSe_9                 2.659178e-01 1 1  ON 29
 uuSe_0                -4.650342e-05 1 1  ON 30
 uuSe_1                 4.642755e-05 1 1  ON 31
 uuSe_2                 8.368851e-05 1 1  ON 32
 uuSe_3                 2.938668e-05 1 1  ON 33
 uuSe_4                -1.462847e-05 1 1  ON 34
 uuSe_5                 9.417195e-07 1 1  ON 35
 uuSe_6                 1.655377e-04 1 1  ON 36
 uuSe_7                 1.720421e-05 1 1  ON 37
 uuSe_8                 5.000567e-05 1 1  ON 38
 uuSe_9                -9.520964e-05 1 1  ON 39
uuSe_10                 6.394086e-06 1 1  ON 40
uuSe_11                -5.192035e-05 1 1  ON 41
uuSe_12                -1.191217e-05 1 1  ON 42
uuSe_13                -1.911114e-05 1 1  ON 43
uuSe_14                 5.751131e-06 1 1  ON 44
uuSe_15                 5.660936e-07 1 1  ON 45
uuSe_16                 1.271989e-04 1 1  ON 46
uuSe_17                -4.909531e-05 1 1  ON 47
uuSe_18                 3.348326e-05 1 1  ON 48
uuSe_19                 3.204862e-06 1 1  ON 49
uuSe_20                -1.547642e-05 1 1  ON 50
uuSe_21                -3.444204e-06 1 1  ON 51
uuSe_22                -1.772210e-07 1 1  ON 52
uuSe_23                 5.855259e-06 1 1  ON 53
uuSe_24                 1.228486e-07 1 1  ON 54
uuSe_25                 2.123508e-08 1 1  ON 55
 udSe_0                -5.998735e-05 1 1  ON 56
 udSe_1                 6.044292e-05 1 1  ON 57
 udSe_2                 5.713523e-05 1 1  ON 58
 udSe_3                 8.350077e-05 1 1  ON 59
 udSe_4                 6.835213e-06 1 1  ON 60
 udSe_5                -8.612374e-06 1 1  ON 61
 udSe_6                 2.329943e-04 1 1  ON 62
 udSe_7                -2.340836e-05 1 1  ON 63
 udSe_8                -5.050943e-05 1 1  ON 64
 udSe_9                -1.243967e-04 1 1  ON 65
udSe_10                 3.823824e-05 1 1  ON 66
udSe_11                 7.546414e-06 1 1  ON 67
udSe_12                 2.001889e-05 1 1  ON 68
udSe_13                -9.839742e-05 1 1  ON 69
udSe_14                -2.607839e-05 1 1  ON 70
udSe_15                 4.521923e-07 1 1  ON 71
udSe_16                 2.012520e-04 1 1  ON 72
udSe_17                -1.416172e-04 1 1  ON 73
udSe_18                 9.275942e-06 1 1  ON 74
udSe_19                -7.183470e-06 1 1  ON 75
udSe_20                 4.301106e-06 1 1  ON 76
udSe_21                 6.198720e-06 1 1  ON 77
udSe_22                -2.522132e-07 1 1  ON 78
udSe_23                -1.379745e-06 1 1  ON 79
udSe_24                -1.096488e-06 1 1  ON 80
udSe_25                 1.376672e-07 1 1  ON 81
  </optVariables>
   Restore the number of walkers to 1, removing 0 walkers.
</opt>
</optimization-report>
  QMC Execution time = 6.287 secs
  Reusing QMCFixedSampleLinearOptimize
 Using QMCCostFunction::QMCCostFunction

=========================================================
  Start QMCFixedSampleLinearOptimize
  File Root Se.log.s005 append = no 
=========================================================
  Skip QMCDriver::putQMCInfo 
  Resetting Properties of the walkers 1 x 13

=========================================================
  Start VMC
  File Root Se.log.s005 append = no 
=========================================================
Using existing walkers 
  Resetting Properties of the walkers 1 x 13

<vmc function="put">
  qmc_counter=4  my_counter=4
  time step      = 1.5000e-01
  blocks         = 500
  steps          = 1
  substeps       = 5
  current        = 0
  target samples = 5.1200e+05
  walkers/mpi    = 1

  stepsbetweensamples = 1
<parameter name="blocks" condition="int">500</parameter>
<parameter name="blocks_between_recompute" condition="int">0</parameter>
<parameter name="check_properties" condition="int">100</parameter>
<parameter name="checkproperties" condition="int">100</parameter>
<parameter name="current" condition="int">0</parameter>
<parameter name="dmcwalkersperthread" condition="real">5.0000e+02</parameter>
<parameter name="maxcpusecs" condition="real">3.6000e+05</parameter>
<parameter name="record_configs" condition="int">0</parameter>
<parameter name="record_walkers" condition="int">1</parameter>
<parameter name="recordconfigs" condition="int">0</parameter>
<parameter name="recordwalkers" condition="int">1</parameter>
<parameter name="rewind" condition="int">0</parameter>
<parameter name="samples" condition="real">5.1200e+05</parameter>
<parameter name="samplesperthread" condition="real">5.0000e+02</parameter>
<parameter name="steps" condition="int">1</parameter>
<parameter name="stepsbetweensamples" condition="int">1</parameter>
<parameter name="store_configs" condition="int">0</parameter>
<parameter name="storeconfigs" condition="int">0</parameter>
<parameter name="sub_steps" condition="int">5</parameter>
<parameter name="substeps" condition="int">5</parameter>
<parameter name="tau" condition="au">1.5000e-01</parameter>
<parameter name="time_step" condition="au">1.5000e-01</parameter>
<parameter name="timestep" condition="au">1.5000e-01</parameter>
<parameter name="use_drift" condition="string">no</parameter>
<parameter name="usedrift" condition="string">no</parameter>
<parameter name="walkers" condition="int">1</parameter>
<parameter name="warmup_steps" condition="int">0</parameter>
<parameter name="warmupsteps" condition="int">0</parameter>
  DumpConfig==false Nothing (configurations, state) will be saved.
  Walker Samples are dumped every 1 steps.
</vmc>
  Set drift_modifier UNR parameter a = 1.0000e+00
  EstimatorManagerBase::add replace LocalEnergy estimator.
  Set drift_modifier UNR parameter a = 1.0000e+00
  EstimatorManagerBase::add replace LocalEnergy estimator.
<optimization-report>
<vmc stage="main" blocks="500">
  Cannot make clones again. Use existing 1 clones
  Initial partition of walkers 0 1 
  Using Particle by Particle moves
  Walker moves without drift
  Total Sample Size   =512000
  Walker distribution on root = 0 1 
  Using Locality Approximation
===== Memory Usage after the buffer registration =====
Available memory on node 0, free + buffers : 52854 MB
Memory footprint by rank 0 on node 0       : 602 MB
==================================================
====================================================
  SimpleFixedNodeBranch::finalize after a VMC block
    QMC counter        = 5
    time step          = 0.15
    reference energy   = -9.28646
    reference variance = 0.035295
====================================================
  Execution time = 3.8639e+00
</vmc>
<opt stage="setup">
  <log>
   Reading configurations from h5FileRoot Se.log.s005
  QMCCostFunction is created with 1 threads.
  Using Nonlocal PP in Opt: NonLocalECP
   Number of samples loaded to each thread : 500 
  VMC Eavg = -9.2892e+00
  VMC Evar = 3.3509e-01
  Total weights = 5.1200e+05
  Execution time = 1.2437e+00
  </log>
</opt>
<opt stage="main" walkers="512000">
  <log>

*****************************************
Building overlap and Hamiltonian matrices
*****************************************

Among totally 82 optimized parameters, largest LM parameter change : 1.6442e-02 at parameter 28

******************************************************************************
Init Cost =  -8.8080e+00    New Cost =  -8.8078e+00  Delta Cost =   1.8949e-04
******************************************************************************

The new set of parameters is valid. Updating the trial wave function!

*****************************************************************************
Applying the update for shift_i =   1.0000e-02     and shift_s =   3.9062e-03
*****************************************************************************
  Execution time = 6.2888e+00
  </log>
  <optVariables href="Se.log.s005.opt.xml">
   uu_0                 4.257453e-01 1 1  ON 0
   uu_1                 2.382990e-01 1 1  ON 1
   uu_2                 1.235638e-01 1 1  ON 2
   uu_3                 4.805561e-02 1 1  ON 3
   uu_4                -2.841900e-03 1 1  ON 4
   uu_5                -4.802538e-02 1 1  ON 5
   uu_6                -8.198276e-02 1 1  ON 6
   uu_7                -1.054665e-01 1 1  ON 7
   uu_8                -1.192711e-01 1 1  ON 8
   uu_9                -1.040537e-01 1 1  ON 9
   ud_0                 8.211171e-01 1 1  ON 10
   ud_1                 4.573620e-01 1 1  ON 11
   ud_2                 2.284361e-01 1 1  ON 12
   ud_3                 7.893507e-02 1 1  ON 13
   ud_4                -5.369612e-03 1 1  ON 14
   ud_5                -6.709066e-02 1 1  ON 15
   ud_6                -1.101678e-01 1 1  ON 16
   ud_7                -1.397417e-01 1 1  ON 17
   ud_8                -1.509261e-01 1 1  ON 18
   ud_9                -1.383695e-01 1 1  ON 19
  eSe_0                -1.003610e+00 1 1  ON 20
  eSe_1                -8.236513e-01 1 1  ON 21
  eSe_2                -6.263424e-01 1 1  ON 22
  eSe_3                -2.112065e-01 1 1  ON 23
  eSe_4                 2.199645e-01 1 1  ON 24
  eSe_5                 3.762287e-01 1 1  ON 25
  eSe_6                 5.457073e-01 1 1  ON 26
  eSe_7                 6.328352e-01 1 1  ON 27
  eSe_8                 6.016618e-01 1 1  ON 28
  eSe_9                 2.764843e-01 1 1  ON 29
 uuSe_0                -4.281860e-05 1 1  ON 30
 uuSe_1                 6.623129e-05 1 1  ON 31
 uuSe_2                 8.071708e-05 1 1  ON 32
 uuSe_3                 1.701981e-05 1 1  ON 33
 uuSe_4                -1.625932e-05 1 1  ON 34
 uuSe_5                -2.966372e-08 1 1  ON 35
 uuSe_6                 1.891820e-04 1 1  ON 36
 uuSe_7                -4.795115e-06 1 1  ON 37
 uuSe_8                 4.599781e-05 1 1  ON 38
 uuSe_9                -1.093991e-04 1 1  ON 39
uuSe_10                -4.504141e-06 1 1  ON 40
uuSe_11                -3.395342e-05 1 1  ON 41
uuSe_12                -1.199827e-05 1 1  ON 42
uuSe_13                -6.868892e-06 1 1  ON 43
uuSe_14                 3.956514e-06 1 1  ON 44
uuSe_15                 7.384937e-07 1 1  ON 45
uuSe_16                 1.357604e-04 1 1  ON 46
uuSe_17                -3.699762e-05 1 1  ON 47
uuSe_18                 1.885680e-05 1 1  ON 48
uuSe_19                 4.430377e-06 1 1  ON 49
uuSe_20                -2.005535e-05 1 1  ON 50
uuSe_21                -1.034762e-06 1 1  ON 51
uuSe_22                -5.084743e-07 1 1  ON 52
uuSe_23                 6.961808e-06 1 1  ON 53
uuSe_24                -3.715785e-07 1 1  ON 54
uuSe_25                 1.051966e-07 1 1  ON 55
 udSe_0                -6.638711e-05 1 1  ON 56
 udSe_1                 6.585427e-05 1 1  ON 57
 udSe_2                 7.222142e-05 1 1  ON 58
 udSe_3                 8.214242e-05 1 1  ON 59
 udSe_4                 2.426245e-06 1 1  ON 60
 udSe_5                -8.446382e-06 1 1  ON 61
 udSe_6                 2.553582e-04 1 1  ON 62
 udSe_7                -1.378592e-05 1 1  ON 63
 udSe_8                -3.276991e-05 1 1  ON 64
 udSe_9                -1.391264e-04 1 1  ON 65
udSe_10                 3.460853e-05 1 1  ON 66
udSe_11                -6.071358e-06 1 1  ON 67
udSe_12                 1.534432e-05 1 1  ON 68
udSe_13                -9.355397e-05 1 1  ON 69
udSe_14                -2.197021e-05 1 1  ON 70
udSe_15                 4.819833e-07 1 1  ON 71
udSe_16                 2.221881e-04 1 1  ON 72
udSe_17                -1.383907e-04 1 1  ON 73
udSe_18                 1.473120e-05 1 1  ON 74
udSe_19                -5.971925e-06 1 1  ON 75
udSe_20                -1.906247e-06 1 1  ON 76
udSe_21                 5.238591e-06 1 1  ON 77
udSe_22                -2.329770e-07 1 1  ON 78
udSe_23                 4.369075e-07 1 1  ON 79
udSe_24                -1.079962e-06 1 1  ON 80
udSe_25                 1.248614e-07 1 1  ON 81
  </optVariables>
   Restore the number of walkers to 1, removing 0 walkers.
</opt>
</optimization-report>
  QMC Execution time = 6.301 secs
  Reusing QMCFixedSampleLinearOptimize
 Using QMCCostFunction::QMCCostFunction

=========================================================
  Start QMCFixedSampleLinearOptimize
  File Root Se.log.s006 append = no 
=========================================================
  Skip QMCDriver::putQMCInfo 
  Resetting Properties of the walkers 1 x 13

=========================================================
  Start VMC
  File Root Se.log.s006 append = no 
=========================================================
Using existing walkers 
  Resetting Properties of the walkers 1 x 13

<vmc function="put">
  qmc_counter=5  my_counter=5
  time step      = 1.5000e-01
  blocks         = 500
  steps          = 1
  substeps       = 5
  current        = 0
  target samples = 5.1200e+05
  walkers/mpi    = 1

  stepsbetweensamples = 1
<parameter name="blocks" condition="int">500</parameter>
<parameter name="blocks_between_recompute" condition="int">0</parameter>
<parameter name="check_properties" condition="int">100</parameter>
<parameter name="checkproperties" condition="int">100</parameter>
<parameter name="current" condition="int">0</parameter>
<parameter name="dmcwalkersperthread" condition="real">5.0000e+02</parameter>
<parameter name="maxcpusecs" condition="real">3.6000e+05</parameter>
<parameter name="record_configs" condition="int">0</parameter>
<parameter name="record_walkers" condition="int">1</parameter>
<parameter name="recordconfigs" condition="int">0</parameter>
<parameter name="recordwalkers" condition="int">1</parameter>
<parameter name="rewind" condition="int">0</parameter>
<parameter name="samples" condition="real">5.1200e+05</parameter>
<parameter name="samplesperthread" condition="real">5.0000e+02</parameter>
<parameter name="steps" condition="int">1</parameter>
<parameter name="stepsbetweensamples" condition="int">1</parameter>
<parameter name="store_configs" condition="int">0</parameter>
<parameter name="storeconfigs" condition="int">0</parameter>
<parameter name="sub_steps" condition="int">5</parameter>
<parameter name="substeps" condition="int">5</parameter>
<parameter name="tau" condition="au">1.5000e-01</parameter>
<parameter name="time_step" condition="au">1.5000e-01</parameter>
<parameter name="timestep" condition="au">1.5000e-01</parameter>
<parameter name="use_drift" condition="string">no</parameter>
<parameter name="usedrift" condition="string">no</parameter>
<parameter name="walkers" condition="int">1</parameter>
<parameter name="warmup_steps" condition="int">0</parameter>
<parameter name="warmupsteps" condition="int">0</parameter>
  DumpConfig==false Nothing (configurations, state) will be saved.
  Walker Samples are dumped every 1 steps.
</vmc>
  Set drift_modifier UNR parameter a = 1.0000e+00
  EstimatorManagerBase::add replace LocalEnergy estimator.
  Set drift_modifier UNR parameter a = 1.0000e+00
  EstimatorManagerBase::add replace LocalEnergy estimator.
<optimization-report>
<vmc stage="main" blocks="500">
  Cannot make clones again. Use existing 1 clones
  Initial partition of walkers 0 1 
  Using Particle by Particle moves
  Walker moves without drift
  Total Sample Size   =512000
  Walker distribution on root = 0 1 
  Using Locality Approximation
===== Memory Usage after the buffer registration =====
Available memory on node 0, free + buffers : 52850 MB
Memory footprint by rank 0 on node 0       : 605 MB
==================================================
====================================================
  SimpleFixedNodeBranch::finalize after a VMC block
    QMC counter        = 6
    time step          = 0.15
    reference energy   = -9.28598
    reference variance = 0.0374792
====================================================
  Execution time = 3.8528e+00
</vmc>
<opt stage="setup">
  <log>
   Reading configurations from h5FileRoot Se.log.s006
  QMCCostFunction is created with 1 threads.
  Using Nonlocal PP in Opt: NonLocalECP
   Number of samples loaded to each thread : 500 
  VMC Eavg = -9.2883e+00
  VMC Evar = 2.7382e-01
  Total weights = 5.1200e+05
  Execution time = 1.2391e+00
  </log>
</opt>
<opt stage="main" walkers="512000">
  <log>

*****************************************
Building overlap and Hamiltonian matrices
*****************************************

Among totally 82 optimized parameters, largest LM parameter change : 9.2671e-03 at parameter 22

******************************************************************************
Init Cost =  -8.8102e+00    New Cost =  -8.8100e+00  Delta Cost =   1.7150e-04
******************************************************************************

The new set of parameters is valid. Updating the trial wave function!

*****************************************************************************
Applying the update for shift_i =   1.0000e-02     and shift_s =   3.9062e-03
*****************************************************************************
  Execution time = 6.2928e+00
  </log>
  <optVariables href="Se.log.s006.opt.xml">
   uu_0                 4.207048e-01 1 1  ON 0
   uu_1                 2.358484e-01 1 1  ON 1
   uu_2                 1.215175e-01 1 1  ON 2
   uu_3                 4.755645e-02 1 1  ON 3
   uu_4                -2.583627e-03 1 1  ON 4
   uu_5                -4.630296e-02 1 1  ON 5
   uu_6                -8.119881e-02 1 1  ON 6
   uu_7                -1.015574e-01 1 1  ON 7
   uu_8                -1.127385e-01 1 1  ON 8
   uu_9                -9.941309e-02 1 1  ON 9
   ud_0                 8.290093e-01 1 1  ON 10
   ud_1                 4.664792e-01 1 1  ON 11
   ud_2                 2.370807e-01 1 1  ON 12
   ud_3                 8.649030e-02 1 1  ON 13
   ud_4                 2.261423e-03 1 1  ON 14
   ud_5                -5.935815e-02 1 1  ON 15
   ud_6                -1.030355e-01 1 1  ON 16
   ud_7                -1.392159e-01 1 1  ON 17
   ud_8                -1.541482e-01 1 1  ON 18
   ud_9                -1.437306e-01 1 1  ON 19
  eSe_0                -1.011145e+00 1 1  ON 20
  eSe_1                -8.297747e-01 1 1  ON 21
  eSe_2                -6.356095e-01 1 1  ON 22
  eSe_3                -2.169335e-01 1 1  ON 23
  eSe_4                 2.267948e-01 1 1  ON 24
  eSe_5                 3.726543e-01 1 1  ON 25
  eSe_6                 5.453072e-01 1 1  ON 26
  eSe_7                 6.405720e-01 1 1  ON 27
  eSe_8                 6.067142e-01 1 1  ON 28
  eSe_9                 2.849888e-01 1 1  ON 29
 uuSe_0                -3.992753e-05 1 1  ON 30
 uuSe_1                 4.633971e-05 1 1  ON 31
 uuSe_2                 7.985580e-05 1 1  ON 32
 uuSe_3                 2.508008e-05 1 1  ON 33
 uuSe_4                -1.524332e-05 1 1  ON 34
 uuSe_5                 1.979098e-06 1 1  ON 35
 uuSe_6                 1.562738e-04 1 1  ON 36
 uuSe_7                 2.450912e-05 1 1  ON 37
 uuSe_8                 5.369187e-05 1 1  ON 38
 uuSe_9                -9.767123e-05 1 1  ON 39
uuSe_10                 3.756078e-06 1 1  ON 40
uuSe_11                -5.639028e-05 1 1  ON 41
uuSe_12                -1.289085e-05 1 1  ON 42
uuSe_13                -1.185572e-05 1 1  ON 43
uuSe_14                 7.727681e-06 1 1  ON 44
uuSe_15                 4.648410e-07 1 1  ON 45
uuSe_16                 1.302760e-04 1 1  ON 46
uuSe_17                -4.307367e-05 1 1  ON 47
uuSe_18                 3.639700e-05 1 1  ON 48
uuSe_19                 3.148876e-06 1 1  ON 49
uuSe_20                -1.939144e-05 1 1  ON 50
uuSe_21                -4.320970e-06 1 1  ON 51
uuSe_22                -5.031382e-08 1 1  ON 52
uuSe_23                 7.238486e-06 1 1  ON 53
uuSe_24                 2.444951e-07 1 1  ON 54
uuSe_25                -1.013463e-08 1 1  ON 55
 udSe_0                -7.195039e-05 1 1  ON 56
 udSe_1                 2.368783e-05 1 1  ON 57
 udSe_2                 6.762452e-05 1 1  ON 58
 udSe_3                 1.095460e-04 1 1  ON 59
 udSe_4                 8.627441e-06 1 1  ON 60
 udSe_5                -5.142599e-06 1 1  ON 61
 udSe_6                 2.037579e-04 1 1  ON 62
 udSe_7                 1.343457e-05 1 1  ON 63
 udSe_8                -4.699790e-05 1 1  ON 64
 udSe_9                -1.062597e-04 1 1  ON 65
udSe_10                 5.639671e-05 1 1  ON 66
udSe_11                -1.989821e-05 1 1  ON 67
udSe_12                 2.116806e-05 1 1  ON 68
udSe_13                -1.267173e-04 1 1  ON 69
udSe_14                -2.605203e-05 1 1  ON 70
udSe_15                 3.990772e-07 1 1  ON 71
udSe_16                 2.086654e-04 1 1  ON 72
udSe_17                -1.738902e-04 1 1  ON 73
udSe_18                 3.057508e-05 1 1  ON 74
udSe_19                -8.985245e-06 1 1  ON 75
udSe_20                 1.085062e-05 1 1  ON 76
udSe_21                 4.160727e-06 1 1  ON 77
udSe_22                -2.121976e-08 1 1  ON 78
udSe_23                -2.704171e-06 1 1  ON 79
udSe_24                -8.189045e-07 1 1  ON 80
udSe_25                 1.038571e-07 1 1  ON 81
  </optVariables>
   Restore the number of walkers to 1, removing 0 walkers.
</opt>
</optimization-report>
  QMC Execution time = 6.305 secs
  Reusing QMCFixedSampleLinearOptimize
 Using QMCCostFunction::QMCCostFunction

=========================================================
  Start QMCFixedSampleLinearOptimize
  File Root Se.log.s007 append = no 
=========================================================
  Skip QMCDriver::putQMCInfo 
  Resetting Properties of the walkers 1 x 13

=========================================================
  Start VMC
  File Root Se.log.s007 append = no 
=========================================================
Using existing walkers 
  Resetting Properties of the walkers 1 x 13

<vmc function="put">
  qmc_counter=6  my_counter=6
  time step      = 1.5000e-01
  blocks         = 500
  steps          = 1
  substeps       = 5
  current        = 0
  target samples = 5.1200e+05
  walkers/mpi    = 1

  stepsbetweensamples = 1
<parameter name="blocks" condition="int">500</parameter>
<parameter name="blocks_between_recompute" condition="int">0</parameter>
<parameter name="check_properties" condition="int">100</parameter>
<parameter name="checkproperties" condition="int">100</parameter>
<parameter name="current" condition="int">0</parameter>
<parameter name="dmcwalkersperthread" condition="real">5.0000e+02</parameter>
<parameter name="maxcpusecs" condition="real">3.6000e+05</parameter>
<parameter name="record_configs" condition="int">0</parameter>
<parameter name="record_walkers" condition="int">1</parameter>
<parameter name="recordconfigs" condition="int">0</parameter>
<parameter name="recordwalkers" condition="int">1</parameter>
<parameter name="rewind" condition="int">0</parameter>
<parameter name="samples" condition="real">5.1200e+05</parameter>
<parameter name="samplesperthread" condition="real">5.0000e+02</parameter>
<parameter name="steps" condition="int">1</parameter>
<parameter name="stepsbetweensamples" condition="int">1</parameter>
<parameter name="store_configs" condition="int">0</parameter>
<parameter name="storeconfigs" condition="int">0</parameter>
<parameter name="sub_steps" condition="int">5</parameter>
<parameter name="substeps" condition="int">5</parameter>
<parameter name="tau" condition="au">1.5000e-01</parameter>
<parameter name="time_step" condition="au">1.5000e-01</parameter>
<parameter name="timestep" condition="au">1.5000e-01</parameter>
<parameter name="use_drift" condition="string">no</parameter>
<parameter name="usedrift" condition="string">no</parameter>
<parameter name="walkers" condition="int">1</parameter>
<parameter name="warmup_steps" condition="int">0</parameter>
<parameter name="warmupsteps" condition="int">0</parameter>
  DumpConfig==false Nothing (configurations, state) will be saved.
  Walker Samples are dumped every 1 steps.
</vmc>
  Set drift_modifier UNR parameter a = 1.0000e+00
  EstimatorManagerBase::add replace LocalEnergy estimator.
  Set drift_modifier UNR parameter a = 1.0000e+00
  EstimatorManagerBase::add replace LocalEnergy estimator.
<optimization-report>
<vmc stage="main" blocks="500">
  Cannot make clones again. Use existing 1 clones
  Initial partition of walkers 0 1 
  Using Particle by Particle moves
  Walker moves without drift
  Total Sample Size   =512000
  Walker distribution on root = 0 1 
  Using Locality Approximation
===== Memory Usage after the buffer registration =====
Available memory on node 0, free + buffers : 52846 MB
Memory footprint by rank 0 on node 0       : 608 MB
==================================================
====================================================
  SimpleFixedNodeBranch::finalize after a VMC block
    QMC counter        = 7
    time step          = 0.15
    reference energy   = -9.29732
    reference variance = 0.029653
====================================================
  Execution time = 3.8618e+00
</vmc>
<opt stage="setup">
  <log>
   Reading configurations from h5FileRoot Se.log.s007
  QMCCostFunction is created with 1 threads.
  Using Nonlocal PP in Opt: NonLocalECP
   Number of samples loaded to each thread : 500 
  VMC Eavg = -9.2882e+00
  VMC Evar = 3.3511e-01
  Total weights = 5.1200e+05
  Execution time = 1.2472e+00
  </log>
</opt>
<opt stage="main" walkers="512000">
  <log>

*****************************************
Building overlap and Hamiltonian matrices
*****************************************

Among totally 82 optimized parameters, largest LM parameter change : 1.1404e-02 at parameter 29

******************************************************************************
Init Cost =  -8.8071e+00    New Cost =  -8.8075e+00  Delta Cost =  -3.8542e-04
******************************************************************************

The new set of parameters is valid. Updating the trial wave function!

*****************************************************************************
Applying the update for shift_i =   1.0000e-02     and shift_s =   3.9062e-03
*****************************************************************************
  Execution time = 6.2952e+00
  </log>
  <optVariables href="Se.log.s007.opt.xml">
   uu_0                 4.169441e-01 1 1  ON 0
   uu_1                 2.359010e-01 1 1  ON 1
   uu_2                 1.268799e-01 1 1  ON 2
   uu_3                 5.270788e-02 1 1  ON 3
   uu_4                 1.409116e-03 1 1  ON 4
   uu_5                -4.313767e-02 1 1  ON 5
   uu_6                -7.813862e-02 1 1  ON 6
   uu_7                -1.009902e-01 1 1  ON 7
   uu_8                -1.090844e-01 1 1  ON 8
   uu_9                -1.044635e-01 1 1  ON 9
   ud_0                 8.333851e-01 1 1  ON 10
   ud_1                 4.706716e-01 1 1  ON 11
   ud_2                 2.408237e-01 1 1  ON 12
   ud_3                 9.204381e-02 1 1  ON 13
   ud_4                 8.820783e-03 1 1  ON 14
   ud_5                -5.328669e-02 1 1  ON 15
   ud_6                -9.910080e-02 1 1  ON 16
   ud_7                -1.341373e-01 1 1  ON 17
   ud_8                -1.481715e-01 1 1  ON 18
   ud_9                -1.413580e-01 1 1  ON 19
  eSe_0                -1.016086e+00 1 1  ON 20
  eSe_1                -8.316861e-01 1 1  ON 21
  eSe_2                -6.371551e-01 1 1  ON 22
  eSe_3                -2.244642e-01 1 1  ON 23
  eSe_4                 2.189062e-01 1 1  ON 24
  eSe_5                 3.798787e-01 1 1  ON 25
  eSe_6                 5.461660e-01 1 1  ON 26
  eSe_7                 6.344563e-01 1 1  ON 27
  eSe_8                 6.111330e-01 1 1  ON 28
  eSe_9                 2.963931e-01 1 1  ON 29
 uuSe_0                -4.390821e-05 1 1  ON 30
 uuSe_1                 5.047821e-05 1 1  ON 31
 uuSe_2                 8.086830e-05 1 1  ON 32
 uuSe_3                 3.111011e-05 1 1  ON 33
 uuSe_4                -1.285685e-05 1 1  ON 34
 uuSe_5                 1.304910e-06 1 1  ON 35
 uuSe_6                 1.696256e-04 1 1  ON 36
 uuSe_7                 1.378617e-05 1 1  ON 37
 uuSe_8                 4.503753e-05 1 1  ON 38
 uuSe_9                -1.002358e-04 1 1  ON 39
uuSe_10                 8.405212e-06 1 1  ON 40
uuSe_11                -5.118315e-05 1 1  ON 41
uuSe_12                -9.877583e-06 1 1  ON 42
uuSe_13                -2.223547e-05 1 1  ON 43
uuSe_14                 4.006049e-06 1 1  ON 44
uuSe_15                 5.325549e-07 1 1  ON 45
uuSe_16                 1.347464e-04 1 1  ON 46
uuSe_17                -5.655461e-05 1 1  ON 47
uuSe_18                 3.624408e-05 1 1  ON 48
uuSe_19                 2.001736e-06 1 1  ON 49
uuSe_20                -1.472085e-05 1 1  ON 50
uuSe_21                -3.627881e-06 1 1  ON 51
uuSe_22                -4.436336e-08 1 1  ON 52
uuSe_23                 5.546746e-06 1 1  ON 53
uuSe_24                 2.166427e-07 1 1  ON 54
uuSe_25                -5.897897e-09 1 1  ON 55
 udSe_0                -6.132906e-05 1 1  ON 56
 udSe_1                 5.096126e-05 1 1  ON 57
[...]
   uu_2                 1.355526e-01 1 1  ON 2
   uu_3                 6.194976e-02 1 1  ON 3
   uu_4                 1.061330e-02 1 1  ON 4
   uu_5                -3.359695e-02 1 1  ON 5
   uu_6                -6.895146e-02 1 1  ON 6
   uu_7                -9.142674e-02 1 1  ON 7
   uu_8                -1.034039e-01 1 1  ON 8
   uu_9                -9.726587e-02 1 1  ON 9
   ud_0                 8.791329e-01 1 1  ON 10
   ud_1                 5.138482e-01 1 1  ON 11
   ud_2                 2.808749e-01 1 1  ON 12
   ud_3                 1.269535e-01 1 1  ON 13
   ud_4                 4.170442e-02 1 1  ON 14
   ud_5                -1.999177e-02 1 1  ON 15
   ud_6                -6.429968e-02 1 1  ON 16
   ud_7                -1.007994e-01 1 1  ON 17
   ud_8                -1.229716e-01 1 1  ON 18
   ud_9                -1.204664e-01 1 1  ON 19
  eSe_0                -1.067647e+00 1 1  ON 20
  eSe_1                -9.002674e-01 1 1  ON 21
  eSe_2                -7.039372e-01 1 1  ON 22
  eSe_3                -2.762971e-01 1 1  ON 23
  eSe_4                 1.908027e-01 1 1  ON 24
  eSe_5                 3.745558e-01 1 1  ON 25
  eSe_6                 5.569326e-01 1 1  ON 26
  eSe_7                 6.652407e-01 1 1  ON 27
  eSe_8                 6.428150e-01 1 1  ON 28
  eSe_9                 4.161833e-01 1 1  ON 29
 uuSe_0                -5.129433e-05 1 1  ON 30
 uuSe_1                 2.791234e-05 1 1  ON 31
 uuSe_2                 8.316769e-05 1 1  ON 32
 uuSe_3                 4.476503e-05 1 1  ON 33
 uuSe_4                -1.191517e-05 1 1  ON 34
 uuSe_5                 2.565735e-06 1 1  ON 35
 uuSe_6                 1.413074e-04 1 1  ON 36
 uuSe_7                 3.926754e-05 1 1  ON 37
 uuSe_8                 4.778559e-05 1 1  ON 38
 uuSe_9                -7.535685e-05 1 1  ON 39
uuSe_10                 1.792476e-05 1 1  ON 40
uuSe_11                -6.848747e-05 1 1  ON 41
uuSe_12                -9.954501e-06 1 1  ON 42
uuSe_13                -4.220477e-05 1 1  ON 43
uuSe_14                 5.147225e-06 1 1  ON 44
uuSe_15                 4.648389e-07 1 1  ON 45
uuSe_16                 1.208952e-04 1 1  ON 46
uuSe_17                -7.432452e-05 1 1  ON 47
uuSe_18                 5.199878e-05 1 1  ON 48
uuSe_19                 9.205597e-07 1 1  ON 49
uuSe_20                -5.953802e-06 1 1  ON 50
uuSe_21                -6.053091e-06 1 1  ON 51
uuSe_22                 2.315734e-07 1 1  ON 52
uuSe_23                 3.453674e-06 1 1  ON 53
uuSe_24                 7.226187e-07 1 1  ON 54
uuSe_25                -7.741186e-08 1 1  ON 55
 udSe_0                -7.254458e-05 1 1  ON 56
 udSe_1                 5.081336e-05 1 1  ON 57
 udSe_2                 6.971436e-05 1 1  ON 58
 udSe_3                 9.433513e-05 1 1  ON 59
 udSe_4                 5.999214e-06 1 1  ON 60
 udSe_5                -8.265916e-06 1 1  ON 61
 udSe_6                 2.326403e-04 1 1  ON 62
 udSe_7                -9.499747e-06 1 1  ON 63
 udSe_8                -4.172418e-05 1 1  ON 64
 udSe_9                -1.137693e-04 1 1  ON 65
udSe_10                 4.553542e-05 1 1  ON 66
udSe_11                -7.422492e-06 1 1  ON 67
udSe_12                 1.787689e-05 1 1  ON 68
udSe_13                -1.133061e-04 1 1  ON 69
udSe_14                -2.427860e-05 1 1  ON 70
udSe_15                 5.072240e-07 1 1  ON 71
udSe_16                 1.940109e-04 1 1  ON 72
udSe_17                -1.545826e-04 1 1  ON 73
udSe_18                 2.068726e-05 1 1  ON 74
udSe_19                -6.910019e-06 1 1  ON 75
udSe_20                 1.122576e-05 1 1  ON 76
udSe_21                 4.277605e-06 1 1  ON 77
udSe_22                -1.388734e-07 1 1  ON 78
udSe_23                -3.274985e-06 1 1  ON 79
udSe_24                -6.760002e-07 1 1  ON 80
udSe_25                 8.673082e-08 1 1  ON 81
  </optVariables>
   Restore the number of walkers to 1, removing 0 walkers.
</opt>
</optimization-report>
  QMC Execution time = 6.415 secs

=========================================================
  Start VMC
  File Root Se.log.s021 append = no 
=========================================================
  Using the current 1 walkers.
  Total number of walkers: 1024
  Total weight: 1024
  Resetting Properties of the walkers 1 x 13

<vmc function="put">
  qmc_counter=0  my_counter=0
  time step      = 0.15
  blocks         = 200
  steps          = 1
  substeps       = 30
  current        = 0
  target samples = 4096
  walkers/mpi    = 1

  stepsbetweensamples = 50
<parameter name="blocks" condition="int">200</parameter>
<parameter name="blocks_between_recompute" condition="int">0</parameter>
<parameter name="check_properties" condition="int">100</parameter>
<parameter name="checkproperties" condition="int">100</parameter>
<parameter name="current" condition="int">0</parameter>
<parameter name="dmcwalkersperthread" condition="real">4</parameter>
<parameter name="maxcpusecs" condition="real">3.6e+05</parameter>
<parameter name="record_configs" condition="int">0</parameter>
<parameter name="record_walkers" condition="int">50</parameter>
<parameter name="recordconfigs" condition="int">0</parameter>
<parameter name="recordwalkers" condition="int">50</parameter>
<parameter name="rewind" condition="int">0</parameter>
<parameter name="samples" condition="real">4096</parameter>
<parameter name="samplesperthread" condition="real">4</parameter>
<parameter name="steps" condition="int">1</parameter>
<parameter name="stepsbetweensamples" condition="int">50</parameter>
<parameter name="store_configs" condition="int">0</parameter>
<parameter name="storeconfigs" condition="int">0</parameter>
<parameter name="sub_steps" condition="int">30</parameter>
<parameter name="substeps" condition="int">30</parameter>
<parameter name="tau" condition="au">0.15</parameter>
<parameter name="time_step" condition="au">0.15</parameter>
<parameter name="timestep" condition="au">0.15</parameter>
<parameter name="use_drift" condition="string">no</parameter>
<parameter name="usedrift" condition="string">no</parameter>
<parameter name="walkers" condition="int">1</parameter>
<parameter name="warmup_steps" condition="int">100</parameter>
<parameter name="warmupsteps" condition="int">100</parameter>
  DumpConfig==true Configurations are dumped to config.h5 with a period of 200 blocks
  Walker Samples are dumped every 50 steps.
</vmc>
  Set drift_modifier UNR parameter a = 1
  EstimatorManagerBase::add replace LocalEnergy estimator.
  Cannot make clones again. Use existing 1 clones
  Initial partition of walkers 0 1 

  Using Particle by Particle moves
  Walker moves without drift
  Total Sample Size   =4096
  Walker distribution on root = 0 1 
  Using Locality Approximation
===== Memory Usage after the buffer registration =====
Available memory on node 0, free + buffers : 52785 MB
Memory footprint by rank 0 on node 0       : 652 MB
==================================================
  Anonymous Buffer size per walker : 2336 Bytes.
MEMORY increase 0 MB VMC::resetRun
  samples are written to the config.h5
====================================================
  SimpleFixedNodeBranch::finalize after a VMC block
    QMC counter        = 21
    time step          = 0.15
    reference energy   = -9.29424
    reference variance = 0.0320188
====================================================
  QMC Execution time = 3.195 secs

=========================================================
  Start DMC
  File Root Se.log.s022 append = no 
=========================================================
Using existing walkers 
  Resetting Properties of the walkers 1 x 13
  Set drift_modifier UNR parameter a = 1
  EstimatorManagerBase::add replace LocalEnergy estimator.
  Cannot make clones again. Use existing 1 clones
  Total number of walkers: 4096
  Total weight: 4096
  Creating WalkerController: target  number of walkers = 4096
  Using WalkerControlMPI for dynamic population control.
  START ALL OVER 
  WalkerControlBase parameters 
    maxCopy = 2
    Max Walkers per MPI rank 9
    Min Walkers per MPI rank 1
    Using non-blocking send/recv
  QMC counter      = 22
  time step        = 0.02
  effective time step = 0.02
  trial energy     = -9.294
  reference energy = -9.294
  Feedback = 1
  reference variance = 0.03202
  target walkers = 4096
  branching cutoff scheme classic
  branch cutoff = 50 75
  Max and minimum walkers per node= 9 1
  QMC Status (BranchMode) = 0000001101
  Initial partition of walkers on a node: 0 4 
  Updates by particle-by-particle moves
  DMC moves are rejected when a node crossing is detected
  Using Non-local T-moves v1, M. Casula et al., JCP 132, 154113 (2010)
===== Memory Usage after the buffer registration =====
Available memory on node 0, free + buffers : 52718 MB
Memory footprint by rank 0 on node 0       : 665 MB
==================================================
SimpleFixedNodeBranch::checkParameters 
  Average Energy of a population  = -9.29207
  Energy Variance = 0.041195

  Fluctuating population
  Persistent walkers are killed after 1 MC sweeps
  BranchInterval = 1
  Steps per block = 50
  Number of blocks = 150

  DMC Engine Initialization = 0.0359 secs

 Warmup is completed after 200

  TauEff     = 0.01988
 TauEff/Tau = 0.9939
  Etrial     = -9.299
 Running average of energy = -9.296
                  Variance = 0.03749
branch cutoff = 10 15
====================================================
  SimpleFixedNodeBranch::finalize after a DMC block
    QMC counter                   = 22
    time step                     = 0.02
    effective time step           = 0.019876
    trial energy                  = -9.30148
    reference energy              = -9.29661
    reference variance            = 0.0374861
    target walkers                = 4096
    branch cutoff                 = 10 15
    Max and minimum walkers per node= 9 1
    Feedback                      = 1
    QMC Status (BranchMode)       = 0000001111
====================================================
  QMC Execution time = 237.9 secs
  Reusing DMC
BRANCH resetRun
 SimpleFixedNodeBranch::resetRun detected changes in <parameter>'s 
 BranchMode : 0000001111 0000001111
  WalkerControlBase parameters 
    maxCopy = 2
    Max Walkers per MPI rank 9
    Min Walkers per MPI rank 1
    Using non-blocking send/recv
 iParam (old):                  0                 1                22              4096                 9                 1                 1                 0
 iParam (new):                100                 1                22              4096                 9                 1                 1                 0
 vParam (old):               0.02     0.01987596683      -9.301476647      -9.296605717      -9.297305909                15                10               0.2     0.03748611247      -67874.51904              7301                 1                10                 1                 1                 1                 1
 vParam (new):               0.01     0.01987596683      -9.301476647      -9.296605717      -9.297305909                15                10               0.2     0.03748611247      -67874.51904              7301                 1                10                 1                 1                 1                 1

 Using branching cutoff scheme classic
SimpleFixedNodeBranch::checkParameters 
  Average Energy of a population  = -9.29729
  Energy Variance = 0.030129

  Using Non-local T-moves v1, M. Casula et al., JCP 132, 154113 (2010)
===== Memory Usage after the buffer registration =====
Available memory on node 0, free + buffers : 52719 MB
Memory footprint by rank 0 on node 0       : 669 MB
==================================================

=========================================================
  Start DMC
  File Root Se.log.s023 append = no 
=========================================================
Using existing walkers 
  Resetting Properties of the walkers 1 x 13
  Set drift_modifier UNR parameter a = 1
  EstimatorManagerBase::add replace LocalEnergy estimator.
  Cannot make clones again. Use existing 1 clones
SimpleFixedNodeBranch::checkParameters 
  Average Energy of a population  = -9.29674
  Energy Variance = 0.052448

  Fluctuating population
  Persistent walkers are killed after 1 MC sweeps
  BranchInterval = 1
  Steps per block = 100
  Number of blocks = 200

  DMC Engine Initialization = 0.0003099441528 secs

 Warmup is completed after 100

  TauEff     = 0.009977956697
 TauEff/Tau = 0.9977956697
  Etrial     = -9.323242669
 Running average of energy = -9.297972024
                  Variance = 0.03731677429
branch cutoff = 10 15
====================================================
  SimpleFixedNodeBranch::finalize after a DMC block
    QMC counter                   = 23
    time step                     = 0.01
    effective time step           = 0.00997701
    trial energy                  = -9.29619
    reference energy              = -9.29644
    reference variance            = 0.0373168
    target walkers                = 4096
    branch cutoff                 = 10 15
    Max and minimum walkers per node= 9 1
    Feedback                      = 1
    QMC Status (BranchMode)       = 0000001111
====================================================
  QMC Execution time = 631.5 secs
  Reusing DMC
BRANCH resetRun
 SimpleFixedNodeBranch::resetRun detected changes in <parameter>'s 
 BranchMode : 0000001111 0000001111
  WalkerControlBase parameters 
    maxCopy = 2
    Max Walkers per MPI rank 9
    Min Walkers per MPI rank 1
    Using non-blocking send/recv
 iParam (old):                  0                 1                23              4096                 9                 1                 1                 0
 iParam (new):                200                 1                23              4096                 9                 1                 1                 0
 vParam (old):               0.01     0.00997700972      -9.296194347      -9.296438517      -9.296839637                15                10               0.2     0.03731677429      -185008.4233             19901                 1                10                 1                 1                 1                 1
 vParam (new):              0.005     0.00997700972      -9.296194347      -9.296438517      -9.296839637                15                10               0.2     0.03731677429      -185008.4233             19901                 1                10                 1                 1                 1                 1

 Using branching cutoff scheme classic
SimpleFixedNodeBranch::checkParameters 
  Average Energy of a population  = -9.29661
  Energy Variance = 0.0348358

  Using Non-local T-moves v1, M. Casula et al., JCP 132, 154113 (2010)
===== Memory Usage after the buffer registration =====
Available memory on node 0, free + buffers : 52694 MB
Memory footprint by rank 0 on node 0       : 672 MB
==================================================

=========================================================
  Start DMC
  File Root Se.log.s024 append = no 
=========================================================
Using existing walkers 
  Resetting Properties of the walkers 1 x 13
  Set drift_modifier UNR parameter a = 1
  EstimatorManagerBase::add replace LocalEnergy estimator.
  Cannot make clones again. Use existing 1 clones
SimpleFixedNodeBranch::checkParameters 
  Average Energy of a population  = -9.29668
  Energy Variance = 0.0341904

  Fluctuating population
  Persistent walkers are killed after 1 MC sweeps
  BranchInterval = 1
  Steps per block = 200
  Number of blocks = 250

  DMC Engine Initialization = 0.002499103546 secs

 Warmup is completed after 200

  TauEff     = 0.004995928139
 TauEff/Tau = 0.9991856278
  Etrial     = -9.348507226
 Running average of energy = -9.295799602
                  Variance = 0.03609304681
branch cutoff = 10 15
====================================================
  SimpleFixedNodeBranch::finalize after a DMC block
    QMC counter                   = 24
    time step                     = 0.005
    effective time step           = 0.00499581
    trial energy                  = -9.29957
    reference energy              = -9.2964
    reference variance            = 0.036093
    target walkers                = 4096
    branch cutoff                 = 10 15
    Max and minimum walkers per node= 9 1
    Feedback                      = 1
    QMC Status (BranchMode)       = 0000001111
====================================================
  QMC Execution time = 1578 secs
  Reusing DMC
BRANCH resetRun
 SimpleFixedNodeBranch::resetRun detected changes in <parameter>'s 
 BranchMode : 0000001111 0000001111
  WalkerControlBase parameters 
    maxCopy = 2
    Max Walkers per MPI rank 9
    Min Walkers per MPI rank 1
    Using non-blocking send/recv
 iParam (old):                  0                 1                24              4096                 9                 1                 1                 0
 iParam (new):                400                 1                24              4096                 9                 1                 1                 0
 vParam (old):              0.005    0.004995810023      -9.299573349      -9.296404546      -9.294861704                15                10               0.2     0.03609304681      -462970.2413             49801                 1                10                 1                 1                 1                 1
 vParam (new):             0.0025    0.004995810023      -9.299573349      -9.296404546      -9.294861704                15                10               0.2     0.03609304681      -462970.2413             49801                 1                10                 1                 1                 1                 1

 Using branching cutoff scheme classic
SimpleFixedNodeBranch::checkParameters 
  Average Energy of a population  = -9.29473
  Energy Variance = 0.0318217

  Using Non-local T-moves v1, M. Casula et al., JCP 132, 154113 (2010)
===== Memory Usage after the buffer registration =====
Available memory on node 0, free + buffers : 52658 MB
Memory footprint by rank 0 on node 0       : 674 MB
==================================================

=========================================================
  Start DMC
  File Root Se.log.s025 append = no 
=========================================================
Using existing walkers 
  Resetting Properties of the walkers 1 x 13
  Set drift_modifier UNR parameter a = 1
  EstimatorManagerBase::add replace LocalEnergy estimator.
  Cannot make clones again. Use existing 1 clones
SimpleFixedNodeBranch::checkParameters 
  Average Energy of a population  = -9.29451
  Energy Variance = 0.031543

  Fluctuating population
  Persistent walkers are killed after 1 MC sweeps
  BranchInterval = 1
  Steps per block = 400
  Number of blocks = 300

  DMC Engine Initialization = 0.002861022949 secs

 Warmup is completed after 400

  TauEff     = 0.002499242329
 TauEff/Tau = 0.9996969316
  Etrial     = -9.110207509
 Running average of energy = -9.297024888
                  Variance = 0.03718446889
branch cutoff = 10 15
====================================================
  SimpleFixedNodeBranch::finalize after a DMC block
    QMC counter                   = 25
    time step                     = 0.0025
    effective time step           = 0.00249924
    trial energy                  = -9.30226
    reference energy              = -9.29666
    reference variance            = 0.0371845
    target walkers                = 4096
    branch cutoff                 = 10 15
    Max and minimum walkers per node= 9 1
    Feedback                      = 1
    QMC Status (BranchMode)       = 0000001111
====================================================
  QMC Execution time = 3783 secs
  Total Execution time = 6362 secs

=========================================================
  A new xml input file : Se.log.s025.cont.xml
TACC:  Shutdown complete. Exiting. 
