
 Primary working directories    : /global/cscratch1/sd/aannabe
 Secondary working directories  : /global/cscratch1/sd/aannabe
 Wavefunction directory         : /global/homes/a/aannabe/wfu/
 Main file repository           : /global/cscratch1/sd/aannabe/

 SHA1      : 19cd028119e0e09f93f0674bd8af7968d9b3eff6
 NAME      : 2015.1.36
 ARCHNAME  : linux/x86_64
 FC        : /opt/cray/pe/craype/2.5.14/bin/ftn
 BLASLIB   : -L/opt/intel/compilers_and_libraries_2018.1.163/linux/mkl/lib/intel64 -Wl,-_start-group -lmkl_intel_ilp64 -lmkl_intel_thread -lmkl_core -Wl,-_end-group -liomp5
 id        : lbl

 Nodes     nprocs
 nid00458     1

 Using customized tuning parameters: mindgm=7; mindgv=16; mindgc=1; mindgr=1; noblas=0; minvec=7
 default implementation of scratch files=df  

 ***,Ga
 memory,8,g
 gthresh,twoint=1.e-12
 
 gprint,basis,orbitals
 gexpec,ekin,pot
 
 angstrom
 geometry={
 1                                                                               ! Number of atoms
 Ga 0.0 0.0 0.0
 }
 
 basis={
 
 Including file /global/homes/a/aannabe/repos/pseudopotentiallibrary/recipes/Ga/ccECP/Ga.ccECP.molpro
 
                                   !include,/global/homes/a/aannabe/repos/pseudopotentiallibrary/recipes/Ga/ccECP/Ga.cc-pVDZ.molpro
                                  !include,/global/homes/a/aannabe/repos/pseudopotentiallibrary/recipes/Ga/ccECP/Ga.cc-pCVDZ.molpro
 Including file /global/homes/a/aannabe/repos/pseudopotentiallibrary/recipes/Ga/ccECP/Ga.aug-cc-pVDZ.molpro
 
 
 }
 
 
 {rhf
  start,atden
  wf,3,2,1
  occ,1,1,0,0,0,0,0,0
  open,1.2
  save,4202.2
 }
 {multi
  start,4202.2
  occ,1,1,1,0,1,0,0
  closed,1,0,0,0,0,0,0,0
  wf,3,2,1;state,1
  wf,3,3,1;state,1
  wf,3,5,1;state,1
  natorb,ci,print
  orbital,5202.2
 }
 {rhf,nitord=1,maxit=0
  start,5202.2
  wf,3,2,1
  occ,1,1,0,0,0,0,0,0
  open,1.2
 }
 
 scf(i)=energy
 
 _CC_NORM_MAX=2.0
 {ci
 maxit,100
 core
 }
 posthf(i)=energy
 
 table,scf,posthf,ekin,pot
 save,2.csv,new
 
 

 Variables initialized (889), CPU time= 0.00 sec
 Commands  initialized (702), CPU time= 0.01 sec, 572 directives.
 Default parameters read. Elapsed time= 0.14 sec

 Checking input...
 Passed
1


                                         ***  PROGRAM SYSTEM MOLPRO  ***
                                       Copyright, TTI GmbH Stuttgart, 2015
                                    Version 2015.1 linked Dec 29 2018 15:55:43


 **********************************************************************************************************************************
 LABEL *   Ga                                                                            
  64 bit serial version                                                                  DATE: 25-Jun-19          TIME: 12:13:39  
 **********************************************************************************************************************************

 SHA1:             19cd028119e0e09f93f0674bd8af7968d9b3eff6
 **********************************************************************************************************************************

 THRESHOLDS:

 ZERO    =  1.00D-12  ONEINT  =  1.00D-12  TWOINT  =  1.00D-12  PREFAC  =  1.00D-14  LOCALI  =  1.00D-09  EORDER  =  1.00D-04
 ENERGY  =  0.00D+00  ETEST   =  0.00D+00  EDENS   =  0.00D+00  THRDEDEF=  1.00D-06  GRADIENT=  1.00D-02  STEP    =  1.00D-03
 ORBITAL =  1.00D-05  CIVEC   =  1.00D-05  COEFF   =  1.00D-04  PRINTCI =  5.00D-02  PUNCHCI =  9.90D+01  OPTGRAD =  3.00D-04
 OPTENERG=  1.00D-06  OPTSTEP =  3.00D-04  THRGRAD =  1.00D-10  COMPRESS=  1.00D-11  VARMIN  =  1.00D-07  VARMAX  =  1.00D-03
 THRDOUB =  0.00D+00  THRDIV  =  1.00D-05  THRRED  =  1.00D-07  THRPSP  =  1.00D+00  THRDC   =  1.00D-10  THRCS   =  1.00D-10
 THRNRM  =  1.00D-08  THREQ   =  0.00D+00  THRDE   =  1.00D+00  THRREF  =  1.00D-05  SPARFAC =  1.00D+00  THRDLP  =  1.00D-07
 THRDIA  =  1.00D-10  THRDLS  =  1.00D-07  THRGPS  =  0.00D+00  THRKEX  =  0.00D+00  THRDIS  =  2.00D-01  THRVAR  =  1.00D-10
 THRLOC  =  1.00D-06  THRGAP  =  1.00D-06  THRLOCT = -1.00D+00  THRGAPT = -1.00D+00  THRORB  =  1.00D-06  THRMLTP =  0.00D+00
 THRCPQCI=  1.00D-10  KEXTA   =  0.00D+00  THRCOARS=  0.00D+00  SYMTOL  =  1.00D-06  GRADTOL =  1.00D-06  THROVL  =  1.00D-08
 THRORTH =  1.00D-08  GRID    =  1.00D-06  GRIDMAX =  1.00D-03  DTMAX   =  0.00D+00  THROCCDE=  1.00D-01  THROCCDE=  1.00D-01



 ZUNIT=ANG
 

Geometry recognized as XYZ


 Variable memory set to 8000000000 words,  buffer space   230000 words

 SETTING BASIS          =    USERDEF


 Recomputing integrals since basis changed


 Using spherical harmonics



 PROGRAM * SEWARD (Integral evaluation for generally contracted gaussian basis sets)     Author: Roland Lindh, 1990

 Geometry written to block  1 of record 700

 Orientation using atomic masses  
 Molecule type: Atom
 Symmetry elements: X,Y,Z
 Rotational constants:       0.0000000      0.0000000      0.0000000 GHz  (calculated with average atomic masses)

 Point group  D2h 



 ATOMIC COORDINATES

 NR  ATOM    CHARGE       X              Y              Z

   1  GA      3.00    0.000000000    0.000000000    0.000000000


          GA  CORE POTENTIAL

          f POTENTIAL

 POWERS             1              3              2              2
 EXPONENTIALS   17.00474       14.99962       11.99279       14.99282    
 COEFFICIENTS   3.000000       51.01422      -39.00063       35.44659    

          s - f POTENTIAL

 POWERS             2              2
 EXPONENTIALS   1.857811      0.9195059    
 COEFFICIENTS   21.78931      -2.866851    

          p - f POTENTIAL

 POWERS             2              2
 EXPONENTIALS   1.920302       1.008959    
 COEFFICIENTS   18.63986      -1.633697    

          d - f POTENTIAL

 POWERS             2              2
 EXPONENTIALS  0.6275088      0.3261903    
 COEFFICIENTS   2.035237     -8.5323757E-02


 BASIS DATA

   Nr Sym  Nuc  Type         Exponents   Contraction coefficients

    1.1 Ag    1  1s          31.011369    -0.000046
                             13.757663     0.000207
                              6.103352    -0.008282
                              2.707648     0.085722
                              1.201202    -0.350699
                              0.532893     0.004567
                              0.236409     0.452968
                              0.104879     0.558187
                              0.046528     0.163319
    2.1 Ag    1  1s           0.043204     1.000000
    3.1 Ag    1  1s           0.017282     1.000000
    4.1 Ag    1  3d0          0.186277     1.000000
    5.1 Ag    1  3d2+         0.186277     1.000000
    6.1 Ag    1  3d0          0.074511     1.000000
    7.1 Ag    1  3d2+         0.074511     1.000000
    1.2 B3u   1  2px         15.391968    -0.000120
                              6.919798    -0.000202
                              3.110948     0.008853
                              1.398595    -0.073708
                              0.628769     0.028260
                              0.282677     0.221463
                              0.127084     0.413320
                              0.057133     0.385686
                              0.025686     0.112292
    2.2 B3u   1  2px          0.054969     1.000000
    3.2 B3u   1  2px          0.021988     1.000000
    1.3 B2u   1  2py         15.391968    -0.000120
                              6.919798    -0.000202
                              3.110948     0.008853
                              1.398595    -0.073708
                              0.628769     0.028260
                              0.282677     0.221463
                              0.127084     0.413320
                              0.057133     0.385686
                              0.025686     0.112292
    2.3 B2u   1  2py          0.054969     1.000000
    3.3 B2u   1  2py          0.021988     1.000000
    1.4 B1g   1  3d2-         0.186277     1.000000
    2.4 B1g   1  3d2-         0.074511     1.000000
    1.5 B1u   1  2pz         15.391968    -0.000120
                              6.919798    -0.000202
                              3.110948     0.008853
                              1.398595    -0.073708
                              0.628769     0.028260
                              0.282677     0.221463
                              0.127084     0.413320
                              0.057133     0.385686
                              0.025686     0.112292
    2.5 B1u   1  2pz          0.054969     1.000000
    3.5 B1u   1  2pz          0.021988     1.000000
    1.6 B2g   1  3d1+         0.186277     1.000000
    2.6 B2g   1  3d1+         0.074511     1.000000
    1.7 B3g   1  3d1-         0.186277     1.000000
    2.7 B3g   1  3d1-         0.074511     1.000000

 NUCLEAR CHARGE:                    3
 NUMBER OF PRIMITIVE AOS:          56
 NUMBER OF SYMMETRY AOS:           54
 NUMBER OF CONTRACTIONS:           22   (   7Ag  +   3B3u +   3B2u +   2B1g +   3B1u +   2B2g +   2B3g +   0Au  )
 NUMBER OF CORE ORBITALS:           0   (   0Ag  +   0B3u +   0B2u +   0B1g +   0B1u +   0B2g +   0B3g +   0Au  )
 NUMBER OF VALENCE ORBITALS:        4   (   1Ag  +   1B3u +   1B2u +   0B1g +   1B1u +   0B2g +   0B3g +   0Au  )


 NUCLEAR REPULSION ENERGY    0.00000000

 EXTRA SYMMETRY OF AOS IN SYMMETRY 1:   1 1 1 2 3 2 3

 Eigenvalues of metric

         1 0.444E-01 0.299E+00 0.299E+00 0.411E+00 0.170E+01 0.170E+01 0.255E+01
         2 0.548E-01 0.395E+00 0.255E+01
         3 0.548E-01 0.395E+00 0.255E+01
         4 0.299E+00 0.170E+01
         5 0.548E-01 0.395E+00 0.255E+01
         6 0.299E+00 0.170E+01
         7 0.299E+00 0.170E+01


 Contracted 2-electron integrals neglected if value below      1.0D-12
 AO integral compression algorithm  1   Integral accuracy      1.0D-12

     0.262 MB (compressed) written to integral file (100.0%)


 NUMBER OF SORTED TWO-ELECTRON INTEGRALS:       5272.     BUFFER LENGTH:  32768
 NUMBER OF SEGMENTS:   1  SEGMENT LENGTH:       5272      RECORD LENGTH: 524288

 Memory used in sort:       0.56 MW

 SORT1 READ       12220. AND WROTE        4734. INTEGRALS IN      1 RECORDS. CPU TIME:     0.00 SEC, REAL TIME:     0.01 SEC
 SORT2 READ        4734. AND WROTE        5272. INTEGRALS IN      1 RECORDS. CPU TIME:     0.00 SEC, REAL TIME:     0.01 SEC

 FILE SIZES:   FILE 1:    20.1 MBYTE,  FILE 4:     4.2 MBYTE,   TOTAL:     24.4 MBYTE

 OPERATOR DM      FOR CENTER  0  COORDINATES:    0.000000    0.000000    0.000000
 OPERATOR EKIN    FOR CENTER  0  COORDINATES:    0.000000    0.000000    0.000000
 OPERATOR POT     FOR CENTER  0  COORDINATES:    0.000000    0.000000    0.000000


 **********************************************************************************************************************************
 DATASETS  * FILE   NREC   LENGTH (MB)   RECORD NAMES
              1      20       19.92       500      610      700      900      950      970     1000      129      960     1100   
                                          VAR    BASINP    GEOM    SYMINP    ZMAT    AOBASIS   BASIS     P2S    ABASIS      S 
                                         1400     1410     1420     1200     1210     1080     1600     1650     1300     1700   
                                         EKIN       V       ECP      H0       H01     AOSYM     SMH    MOLCAS    ERIS     OPER   

 PROGRAMS   *        TOTAL       INT
 CPU TIMES  *         1.48      1.40
 REAL TIME  *        22.04 SEC
 DISK USED  *        24.63 MB      
 **********************************************************************************************************************************


 PROGRAM * RHF-SCF (OPEN SHELL)       Authors: W. Meyer, H.-J. Werner


 NUMBER OF ELECTRONS:       2+    1-    SPACE SYMMETRY=2    SPIN SYMMETRY: Doublet 
 CONVERGENCE THRESHOLDS:    1.00E-05 (Density)    1.00E-07 (Energy)
 MAX. NUMBER OF ITERATIONS:       60
 INTERPOLATION TYPE:            DIIS
 INTERPOLATION STEPS:              2 (START)      1 (STEP)
 LEVEL SHIFTS:                 -0.60 (CLOSED) -0.30 (OPEN) 


 Singly occupied orbitals:      1.2

   Atom=GA basis=ECP28MWB_GUESS    lmin=0  lmax=1

 Orbital guess generated from atomic densities. Full valence occupancy:    1   1   1   0   1   0   0   0


 Molecular orbital dump at record        4202.2

 ITERATION    DDIFF          GRAD             ENERGY        2-EL.EN.            DIPOLE MOMENTS         DIIS   ORB.
    1      0.000D+00      0.000D+00        -1.96793065      1.654220    0.00000    0.00000    0.00000    0    start
    2      0.000D+00      0.928D-02        -1.97510335      1.708980    0.00000    0.00000    0.00000    1    diag,B
    3      0.238D-01      0.653D-02        -1.98222421      1.785108    0.00000    0.00000    0.00000    2    diag,B
    4      0.361D-01      0.337D-02        -1.98420023      1.826685    0.00000    0.00000    0.00000    3    diag,B
    5      0.306D-01      0.458D-03        -1.98420807      1.825300    0.00000    0.00000    0.00000    4    diag,B
    6      0.161D-02      0.203D-03        -1.98421004      1.825876    0.00000    0.00000    0.00000    5    diag,B
    7      0.114D-02      0.176D-04        -1.98421007      1.825778    0.00000    0.00000    0.00000    6    fixocc
    8      0.129D-03      0.118D-04        -1.98421008      1.825763    0.00000    0.00000    0.00000    7    diag,B
    9      0.659D-04      0.130D-05        -1.98421008      1.825761    0.00000    0.00000    0.00000    8    diag,B
   10      0.645D-05      0.474D-06        -1.98421008      1.825761    0.00000    0.00000    0.00000    0    orth

 Final alpha occupancy:   1   1   0   0   0   0   0
 Final beta  occupancy:   1   0   0   0   0   0   0

 !RHF STATE 1.2 Energy                 -1.984210076625
 Nuclear energy                         0.00000000
 One-electron energy                   -2.89709038
 Two-electron energy                    0.91288030
 Virial quotient                       -2.76802181
 !RHF STATE 1.2 Dipole moment           0.00000000     0.00000000     0.00000000
 Dipole moment /Debye                   0.00000000     0.00000000     0.00000000
 

 !RHF expec          <1.2|EKIN|1.2>     0.716833251767
 
 !RHF expec           <1.2|POT|1.2>    -1.287614653996

 ELECTRON ORBITALS
 =================


   Orb  Occ    Energy  Couls-En    Coefficients

                                   1 1s      1 1s      1 1s      1 3d0     1 3d2+    1 3d0     1 3d2+ 

   1.1   2    -0.4319   -1.5039  1.000297 -0.000788  0.000566  0.001098 -0.001902 -0.005554  0.009620

                                   1 2px     1 2px     1 2px  

   1.2   +    -0.2076   -0.9605  0.999627  0.000381  0.000037

 HOMO      1.2    -0.207614 =      -5.6495eV
 LUMO      1.3     0.012393 =       0.3372eV
 LUMO-HOMO         0.220007 =       5.9867eV


 **********************************************************************************************************************************
 DATASETS  * FILE   NREC   LENGTH (MB)   RECORD NAMES
              1      20       19.92       500      610      700      900      950      970     1000      129      960     1100   
                                          VAR    BASINP    GEOM    SYMINP    ZMAT    AOBASIS   BASIS     P2S    ABASIS      S 
                                         1400     1410     1420     1200     1210     1080     1600     1650     1300     1700   
                                         EKIN       V       ECP      H0       H01     AOSYM     SMH    MOLCAS    ERIS     OPER   

              2       4        2.75       700     1000      520     4202   
                                         GEOM     BASIS   MCVARS     RHF  

 PROGRAMS   *        TOTAL       RHF       INT
 CPU TIMES  *         1.52      0.04      1.40
 REAL TIME  *        22.20 SEC
 DISK USED  *        24.63 MB      
 **********************************************************************************************************************************


 PROGRAM * MULTI (Direct Multiconfiguration SCF)       Authors: P.J. Knowles, H.-J. Werner (1984)     S.T. Elbert (1988)


 Number of closed-shell orbitals:   1 (   1   0   0   0   0   0   0   0 )
 Number of active  orbitals:        3 (   0   1   1   0   1   0   0   0 )
 Number of external orbitals:      18 (   6   2   2   2   2   2   2   0 )

 State symmetry 1

 Number of electrons:     1    Spin symmetry=Doublet   Space symmetry=2
 Number of states:        1
 Number of CSFs:          1   (1 determinants, 3 intermediate states)

 State symmetry 2

 Number of electrons:     1    Spin symmetry=Doublet   Space symmetry=3
 Number of states:        1
 Number of CSFs:          1   (1 determinants, 3 intermediate states)

 State symmetry 3

 Number of electrons:     1    Spin symmetry=Doublet   Space symmetry=5
 Number of states:        1
 Number of CSFs:          1   (1 determinants, 3 intermediate states)

 Molecular orbitals read from record     4202.2  Type=RHF/CANONICAL (state 1.2)
 *** IN SYMMETRY 1 ORBITAL  1 SYMMETRY CONTAMINATION OF 0.178D-01 HAS BEEN REMOVED

 EXTRA SYMMETRY OF MOS IN SYMMETRY 1:   1 1 3 2 1 3 2

 Wavefunction dump at record             5202.2

 Convergence thresholds  0.10E-01 (gradient)  0.10E-05 (energy)  0.10E-02 (step length)

 Weight factors for state symmetry  1:    0.33333
 Weight factors for state symmetry  2:    0.33333
 Weight factors for state symmetry  3:    0.33333

 Number of orbital rotations:       12   (     0 Core/Active      6 Core/Virtual   0 Active/Active      6 Active/Virtual)
 Total number of variables:         15


 ITER. MIC  NCI  NEG     ENERGY(VAR)     ENERGY(PROJ)   ENERGY CHANGE     GRAD(0)  GRAD(ORB)   GRAD(CI)     STEP       TIME

   1   32   12    0      -1.96316526      -1.98413439   -0.02096913    0.03640431 0.00000000 0.00000000  0.64D+00      0.02
   2   14   12    0      -1.98411343      -1.98412428   -0.00001085    0.00377213 0.00000000 0.00000000  0.34D-02      0.02
   3   13   12    0      -1.98412429      -1.98412429   -0.00000000    0.00000088 0.00000000 0.00000000  0.48D-05      0.02

 ** WVFN ****  CONVERGENCE REACHED, FINAL GRADIENT:  0.39D-12



 Results for state 1.2
 =====================

 !MCSCF STATE 1.2 Energy               -1.984124285050
 Nuclear energy                         0.00000000
 Kinetic energy                         0.71679738
 One electron energy                   -2.89721389
 Two electron energy                    0.91308961
 Virial ratio                           3.76804065

 !MCSCF STATE 1.2 Dipole moment         0.00000000     0.00000000     0.00000000
 Dipole moment /Debye                   0.00000000     0.00000000     0.00000000



 Results for state 1.3
 =====================

 !MCSCF STATE 1.3 Energy               -1.984124285050
 Nuclear energy                         0.00000000
 Kinetic energy                         0.71679738
 One electron energy                   -2.89721389
 Two electron energy                    0.91308961
 Virial ratio                           3.76804065

 !MCSCF STATE 1.3 Dipole moment         0.00000000     0.00000000     0.00000000
 Dipole moment /Debye                   0.00000000     0.00000000     0.00000000



 Results for state 1.5
 =====================

 !MCSCF STATE 1.5 Energy               -1.984124285050
 Nuclear energy                         0.00000000
 Kinetic energy                         0.71679738
 One electron energy                   -2.89721389
 Two electron energy                    0.91308961
 Virial ratio                           3.76804065

 !MCSCF STATE 1.5 Dipole moment         0.00000000     0.00000000     0.00000000
 Dipole moment /Debye                   0.00000000     0.00000000     0.00000000

 State-averaged charge density matrix saved on record  5202.2 (density set 1)

 !MCSCF expec        <1.2|EKIN|1.2>     0.716797379539
 !MCSCF expec        <1.3|EKIN|1.3>     0.716797379539
 !MCSCF expec        <1.5|EKIN|1.5>     0.716797379539

 !MCSCF expec         <1.2|POT|1.2>    -1.287659383612
 !MCSCF expec         <1.3|POT|1.3>    -1.287659383612
 !MCSCF expec         <1.5|POT|1.5>    -1.287659383612


 NATURAL ORBITALS (state averaged)
 =================================

   Orb     Occ        Energy       Coefficients

                                   1 1s      1 1s      1 1s      1 3d0     1 3d2+    1 3d0     1 3d2+ 

   1.1  2.00000    -0.431794     1.000156 -0.000587  0.000591  0.000000  0.000000  0.000000  0.000000

                                   1 2px     1 2px     1 2px  

   1.2  0.33333     0.005137     1.000028 -0.000087  0.000083

                                   1 2py     1 2py     1 2py  

   1.3  0.33333     0.005137     1.000028 -0.000087  0.000083

                                   1 2pz     1 2pz     1 2pz  

   1.5  0.33333     0.005137     1.000028 -0.000087  0.000083
 

 EXTRA SYMMETRY OF MOS IN SYMMETRY 1:   1 1 3 2 1 2 3

 Natural orbital dump (state averaged) at molpro section  5202.2    (Orbital set 2)


 CI vector for state symmetry 1
 ==============================

 a 0 0           1.0000000

 TOTAL ENERGIES                        -1.98412429

 CI vector for state symmetry 2
 ==============================

 0 a 0           1.0000000

 TOTAL ENERGIES                        -1.98412429

 CI vector for state symmetry 3
 ==============================

 0 0 a           1.0000000

 TOTAL ENERGIES                        -1.98412429



 **********************************************************************************************************************************
 DATASETS  * FILE   NREC   LENGTH (MB)   RECORD NAMES
              1      21       19.93       500      610      700      900      950      970     1000      129      960     1100   
                                          VAR    BASINP    GEOM    SYMINP    ZMAT    AOBASIS   BASIS     P2S    ABASIS      S 
                                         1400     1410     1420     1200     1210     1080     1600     1650     1300     1700   
                                         EKIN       V       ECP      H0       H01     AOSYM     SMH    MOLCAS    ERIS     OPER   
                                         1380   
                                         JKOP   

              2       5        5.24       700     1000      520     4202     5202   
                                         GEOM     BASIS   MCVARS     RHF     MCSCF   

 PROGRAMS   *        TOTAL     MULTI       RHF       INT
 CPU TIMES  *         1.55      0.03      0.04      1.40
 REAL TIME  *        23.27 SEC
 DISK USED  *        34.31 MB      
 **********************************************************************************************************************************


 PROGRAM * RHF-SCF (OPEN SHELL)       Authors: W. Meyer, H.-J. Werner


 NUMBER OF ELECTRONS:       2+    1-    SPACE SYMMETRY=2    SPIN SYMMETRY: Doublet 
 CONVERGENCE THRESHOLDS:    1.00E-05 (Density)    1.00E-07 (Energy)
 MAX. NUMBER OF ITERATIONS:        0
 INTERPOLATION TYPE:            DIIS
 INTERPOLATION STEPS:              2 (START)      1 (STEP)
 LEVEL SHIFTS:                 -0.60 (CLOSED) -0.30 (OPEN) 


 Singly occupied orbitals:      1.2
 Molecular orbitals read from record     5202.2  Type=MCSCF/NATURAL (state averaged)

 Molecular orbital dump at record        2101.2

 ITERATION    DDIFF          GRAD             ENERGY        2-EL.EN.            DIPOLE MOMENTS         DIIS   ORB.
    1      0.000D+00      0.000D+00        -1.98412429      1.826179    0.00000    0.00000    0.00000    0    start

 Final alpha occupancy:   1   1   0   0   0   0   0
 Final beta  occupancy:   1   0   0   0   0   0   0

 !RHF STATE 1.2 Energy                 -1.984124285050
 Nuclear energy                         0.00000000
 One-electron energy                   -2.89721389
 Two-electron energy                    0.91308961
 Virial quotient                       -2.76804065
 !RHF STATE 1.2 Dipole moment           0.00000000     0.00000000     0.00000000
 Dipole moment /Debye                   0.00000000     0.00000000     0.00000000
 

 !RHF expec          <1.2|EKIN|1.2>     0.716797379539
 
 !RHF expec           <1.2|POT|1.2>    -1.287659383612

 ELECTRON ORBITALS
 =================


   Orb  Occ    Energy  Couls-En    Coefficients

                                   1 1s      1 1s      1 1s      1 3d0     1 3d2+    1 3d0     1 3d2+ 

   1.1   2    -0.4318   -1.5039  1.000156 -0.000587  0.000591  0.000000  0.000000  0.000000  0.000000

                                   1 2px     1 2px     1 2px  

   1.2   +     0.0051   -0.7478  1.000028 -0.000087  0.000083

 HOMO      1.2     0.005137 =       0.1398eV
 LUMO      1.3     0.005137 =       0.1398eV
 LUMO-HOMO         0.000000 =       0.0000eV


 **********************************************************************************************************************************
 DATASETS  * FILE   NREC   LENGTH (MB)   RECORD NAMES
              1      21       19.93       500      610      700      900      950      970     1000      129      960     1100   
                                          VAR    BASINP    GEOM    SYMINP    ZMAT    AOBASIS   BASIS     P2S    ABASIS      S 
                                         1400     1410     1420     1200     1210     1080     1600     1650     1300     1700   
                                         EKIN       V       ECP      H0       H01     AOSYM     SMH    MOLCAS    ERIS     OPER   
                                         1380   
                                         JKOP   

              2       6        7.74       700     1000      520     4202     5202     2101   
                                         GEOM     BASIS   MCVARS     RHF     MCSCF     RHF  

 PROGRAMS   *        TOTAL       RHF     MULTI       RHF       INT
 CPU TIMES  *         1.56      0.01      0.03      0.04      1.40
 REAL TIME  *        23.37 SEC
 DISK USED  *        34.31 MB      
 **********************************************************************************************************************************
 SETTING SCF(I)         =        -1.98412429  AU                              
 SETTING _CC_NORM_MAX   =         2.00000000                                  


 PROGRAM * CI (Multireference internally contracted CI)     Authors: H.-J. Werner, P.J. Knowles, 1987


 Convergence thresholds:  THRVAR = 1.00D-08  THRDEN = 1.00D-06

 Number of optimized states:  1  Roots:   1
 Number of reference states:  1  Roots:   1

 Reference symmetry:                   2   Doublet 
 Number of electrons:                  3
 Maximum number of shells:             2
 Maximum number of spin couplings:     2

 Reference space:        1 conf        1 CSFs
 N elec internal:        2 conf        2 CSFs
 N-1 el internal:        3 conf        4 CSFs
 N-2 el internal:        2 conf        4 CSFs

 Number of electrons in valence space:                      3
 Maximum number of open shell orbitals in reference space:  1
 Maximum number of open shell orbitals in internal spaces:  3


 Number of closed-shell orbitals:   1 (   1   0   0   0   0   0   0 )
 Number of active  orbitals:        1 (   0   1   0   0   0   0   0 )
 Number of external orbitals:      20 (   6   2   3   2   3   2   2 )

 Molecular orbitals read from record     2101.2  Type=RHF/CANONICAL (state 1.2)

 Coulomb and exchange operators available. No transformation done.

 Number of p-space configurations:   1

 Reference wavefunction optimized for reference space (refopt=1)

 State     Reference Energy 
   1          -1.98412429

 Number of blocks in overlap matrix:     3   Smallest eigenvalue:  0.10D+01
 Number of N-2 electron functions:       3
 Number of N-1 electron functions:       4

 Number of internal configurations:                    1
 Number of singly external configurations:            16
 Number of doubly external configurations:            93
 Total number of contracted configurations:          110
 Total number of uncontracted configurations:        135

 Diagonal Coupling coefficients finished.               Storage:     176 words, CPU-Time:      0.00 seconds.
 Energy denominators for pairs finished in 1 passes.    Storage:     466 words, CPU-time:      0.00 seconds.

  ITER. STATE  ROOT     SQ.NORM     CORR.ENERGY   TOTAL ENERGY   ENERGY CHANGE       DEN1      VAR(S)    VAR(P)      TIME
    1     1     1     1.00000000     0.00000000    -1.98412429     0.00000000    -0.04133594  0.84D-02  0.37D-01     0.01
    2     1     1     1.05627704    -0.04619915    -2.03032344    -0.04619915    -0.00074803  0.22D-03  0.44D-03     0.01
    3     1     1     1.06233095    -0.04717849    -2.03130277    -0.00097934    -0.00002704  0.83D-05  0.20D-04     0.01
    4     1     1     1.06280213    -0.04721517    -2.03133945    -0.00003668    -0.00000102  0.29D-06  0.74D-06     0.01
    5     1     1     1.06283124    -0.04721651    -2.03134079    -0.00000134    -0.00000004  0.51D-07  0.16D-07     0.01
    6     1     1     1.06283853    -0.04721657    -2.03134086    -0.00000006    -0.00000000  0.35D-08  0.14D-08     0.01


 =====================================
 Analysis of CPU times by interactions
 =====================================

       I      S      P

 I   0.0%
 S   0.0%   0.0%
 P   0.0%   0.0%   0.0%

 Initialization: 100.0%
 Other:            0.0%

 Total CPU:        0.0 seconds
 =====================================



 Reference coefficients greater than 0.0500000
 =============================================
 2/           0.9699880

 Coefficients of singly external configurations greater than 0.0500000
 =====================================================================

 \/   3.1    -0.0521747

 Coefficients of doubly external configurations greater than 0.0500000
 =====================================================================

 PAIR    I     J   ->   K     L     NP  SYM  REF     COEFFICIENTS

   1    1.1   1.1      1.5   1.5     1   1    1   -0.10412419
   1    1.1   1.1      1.3   1.3     1   1    1   -0.10412285



 RESULTS FOR STATE 1.2
 =====================

 Coefficient of reference function:   C(0) = 0.96998799 (fixed)   0.96998799 (relaxed)

 Energy contributions of configuration classes

 CLASS          SQ.NORM        ECORR1        ECORR2
 +++++++++++++++++++++++++++++++++++++++++++++++++++
 Internals    0.00000000    0.00000000    0.00000000
 Singles      0.01082495   -0.00774296   -0.00776523
 Pairs        0.05201358   -0.03947361   -0.03945134
 Total        1.06283853   -0.04721657   -0.04721657
 +++++++++++++++++++++++++++++++++++++++++++++++++++


 Reference energy                      -1.98412429
 Nuclear energy                         0.00000000
 Kinetic energy                         0.75466761
 One electron energy                   -2.86610435
 Two electron energy                    0.83476349
 Virial quotient                       -2.69170271
 Correlation energy                    -0.04721657
 !CI(SD) STATE 1.2 Energy              -2.031340855217

 Properties without orbital relaxation:

 !CI(SD) STATE 1.2 Dipole moment        0.00000000     0.00000000     0.00000000
 Dipole moment /Debye                   0.00000000     0.00000000     0.00000000

 Cluster corrected energies            -2.03430788 (Davidson, fixed reference)
 Cluster corrected energies            -2.03430788 (Davidson, relaxed reference)

 Cluster corrected energies            -2.03134086 (Pople, fixed reference)
 Cluster corrected energies            -2.03134086 (Pople, relaxed reference)

 

 !CI(SD) expec       <1.2|EKIN|1.2>     0.754667611994
 
 !CI(SD) expec        <1.2|POT|1.2>    -1.288505430532


 **********************************************************************************************************************************
 DATASETS  * FILE   NREC   LENGTH (MB)   RECORD NAMES
              1      21       19.93       500      610      700      900      950      970     1000      129      960     1100   
                                          VAR    BASINP    GEOM    SYMINP    ZMAT    AOBASIS   BASIS     P2S    ABASIS      S 
                                         1400     1410     1420     1200     1210     1080     1600     1650     1300     1700   
                                         EKIN       V       ECP      H0       H01     AOSYM     SMH    MOLCAS    ERIS     OPER   
                                         1380   
                                         JKOP   

              2       6        7.74       700     1000      520     4202     5202     2101   
                                         GEOM     BASIS   MCVARS     RHF     MCSCF     RHF  

 PROGRAMS   *        TOTAL        CI       RHF     MULTI       RHF       INT
 CPU TIMES  *         1.61      0.05      0.01      0.03      0.04      1.40
 REAL TIME  *        23.95 SEC
 DISK USED  *        34.31 MB      
 **********************************************************************************************************************************
 SETTING POSTHF(I)      =        -2.03134086  AU                              
                                                                                                                                                                                                                                                                

       SCF           POSTHF       EKIN          POT
    -1.98412429   -2.03134086   0.75466761   -1.28850543
                                                  

 CI/USERDEF energy=     -2.031340855217

        CI              RHF-SCF         MULTI           RHF-SCF 
     -2.03134086     -1.98412429     -1.98412429     -1.98421008
 **********************************************************************************************************************************
 Molpro calculation terminated
 Variable memory released
