
 Primary working directories    : /global/cscratch1/sd/aannabe
 Secondary working directories  : /global/cscratch1/sd/aannabe
 Wavefunction directory         : /global/homes/a/aannabe/wfu/
 Main file repository           : /global/cscratch1/sd/aannabe/

 SHA1      : 2873118e99aab1bc19f5b6fc1784693c06d15c95
 NAME      : 2015.1.8
 ARCHNAME  : linux/x86_64
 FC        : /opt/cray/pe/craype/2.5.5/bin/ftn
 BLASLIB   : -Wl,-_start-group /opt/intel/compilers_and_libraries_2016.3.210/linux/mkl/lib/intel64/libmkl_intel_ilp64.a /opt/intel/compilers_and_libraries_2016.3.210/linux/mkl/lib/intel64/libmkl_intel_thread.a /opt/intel/compilers_and_libraries_2016.3.210/linux/mkl/lib/intel64/libmkl_core.a -Wl,-_end-group
 id        : lbl

 Nodes     nprocs
 nid00471     1

 Using customized tuning parameters: mindgm=8; mindgv=16; mindgc=4; mindgr=1; noblas=0; minvec=7
 default implementation of scratch files=df  

 ***,S
 memory,512,m
 gthresh,twoint=1.e-12
 
 gprint,basis,orbitals
 gexpec,ekin,pot
 
 angstrom
 geometry={
 1                                                                               ! Number of atoms
 S 0.0 0.0 0.0
 }
 
 basis={
 Including file /global/homes/a/aannabe/docs/totals/pps/S.pp
 Including file /global/homes/a/aannabe/docs/totals/basis/aug-cc-pVnZ/S_dz.basis
 }
 
 {hf
 wf,6,7,2
 occ,1,1,1,0,1,0,0,0
                                                                                 !open,1.3
 closed,1,1,0,0,0,0,0,0
                                                                                 !sym,
 }
 scf(i)=energy
 
 _CC_NORM_MAX=2.0
 {ci
 maxit,100
 core
 }
 posthf(i)=energy
 
 table,scf,posthf,ekin,pot
 save,2.csv,new
 
 

 Variables initialized (889), CPU time= 0.00 sec
 Commands  initialized (702), CPU time= 0.02 sec, 572 directives.
 Default parameters read. Elapsed time= 0.19 sec

 Checking input...
 Passed
1


                                         ***  PROGRAM SYSTEM MOLPRO  ***
                                       Copyright, TTI GmbH Stuttgart, 2015
                                    Version 2015.1 linked Sep  7 2016 23:09:38


 **********************************************************************************************************************************
 LABEL *   S                                                                             
  64 bit serial version                                                                  DATE: 03-Oct-18          TIME: 11:40:25  
 **********************************************************************************************************************************

 SHA1:             2873118e99aab1bc19f5b6fc1784693c06d15c95
 **********************************************************************************************************************************

 THRESHOLDS:

 ZERO    =  1.00D-12  ONEINT  =  1.00D-12  TWOINT  =  1.00D-12  PREFAC  =  1.00D-14  LOCALI  =  1.00D-09  EORDER  =  1.00D-04
 ENERGY  =  0.00D+00  ETEST   =  0.00D+00  EDENS   =  0.00D+00  THRDEDEF=  1.00D-06  GRADIENT=  1.00D-02  STEP    =  1.00D-03
 ORBITAL =  1.00D-05  CIVEC   =  1.00D-05  COEFF   =  1.00D-04  PRINTCI =  5.00D-02  PUNCHCI =  9.90D+01  OPTGRAD =  3.00D-04
 OPTENERG=  1.00D-06  OPTSTEP =  3.00D-04  THRGRAD =  1.00D-10  COMPRESS=  1.00D-11  VARMIN  =  1.00D-07  VARMAX  =  1.00D-03
 THRDOUB =  0.00D+00  THRDIV  =  1.00D-05  THRRED  =  1.00D-07  THRPSP  =  1.00D+00  THRDC   =  1.00D-10  THRCS   =  1.00D-10
 THRNRM  =  1.00D-08  THREQ   =  0.00D+00  THRDE   =  1.00D+00  THRREF  =  1.00D-05  SPARFAC =  1.00D+00  THRDLP  =  1.00D-07
 THRDIA  =  1.00D-10  THRDLS  =  1.00D-07  THRGPS  =  0.00D+00  THRKEX  =  0.00D+00  THRDIS  =  2.00D-01  THRVAR  =  1.00D-10
 THRLOC  =  1.00D-06  THRGAP  =  1.00D-06  THRLOCT = -1.00D+00  THRGAPT = -1.00D+00  THRORB  =  1.00D-06  THRMLTP =  0.00D+00
 THRCPQCI=  1.00D-10  KEXTA   =  0.00D+00  THRCOARS=  0.00D+00  SYMTOL  =  1.00D-06  GRADTOL =  1.00D-06  THROVL  =  1.00D-08
 THRORTH =  1.00D-08  GRID    =  1.00D-06  GRIDMAX =  1.00D-03  DTMAX   =  0.00D+00  THROCCDE=  1.00D-01  THROCCDE=  1.00D-01



 ZUNIT=ANG
 

Geometry recognized as XYZ


 Variable memory set to  512000000 words,  buffer space   230000 words

 SETTING BASIS          =    USERDEF


 Recomputing integrals since basis changed


 Using spherical harmonics



 PROGRAM * SEWARD (Integral evaluation for generally contracted gaussian basis sets)     Author: Roland Lindh, 1990

 Geometry written to block  1 of record 700

 Orientation using atomic masses  
 Molecule type: Atom
 Symmetry elements: X,Y,Z
 Rotational constants:       0.0000000      0.0000000      0.0000000 GHz  (calculated with average atomic masses)

 Point group  D2h 



 ATOMIC COORDINATES

 NR  ATOM    CHARGE       X              Y              Z

   1  S       6.00    0.000000000    0.000000000    0.000000000


          S   CORE POTENTIAL

          d POTENTIAL

 POWERS             1              3              2
 EXPONENTIALS   6.151144       11.56157       5.390961    
 COEFFICIENTS   6.000000       36.90686      -19.81953    

          s - d POTENTIAL

 POWERS             2              2
 EXPONENTIALS   16.11769       3.608629    
 COEFFICIENTS   15.92575       38.51590    

          p - d POTENTIAL

 POWERS             2              2
 EXPONENTIALS   6.228956       2.978074    
 COEFFICIENTS   8.062221       18.73753    


 BASIS DATA

   Nr Sym  Nuc  Type         Exponents   Contraction coefficients

    1.1 Ag    1  1s          14.052570     0.002102
                              7.864913    -0.011042
                              4.401818     0.086618
                              2.463600    -0.271004
                              1.378823    -0.151274
                              0.771696     0.136044
                              0.431901     0.394360
                              0.241726     0.432098
                              0.135289     0.230974
                              0.075718     0.051205
    2.1 Ag    1  1s           0.529726     1.000000
    3.1 Ag    1  1s           0.119300     1.000000
    4.1 Ag    1  3d0          0.499639     1.000000
    5.1 Ag    1  3d2+         0.499639     1.000000
    6.1 Ag    1  3d0          0.165988     1.000000
    7.1 Ag    1  3d2+         0.165988     1.000000
    1.2 B3u   1  2px          6.808844    -0.003573
                              3.941560     0.001903
                              2.281723    -0.065016
                              1.320863     0.042305
                              0.764632     0.158772
                              0.442637     0.278172
                              0.256237     0.293821
                              0.148333     0.248015
                              0.085868     0.114905
                              0.049708     0.032934
    2.2 B3u   1  2px          0.497174     1.000000
    3.2 B3u   1  2px          0.305874     1.000000
    1.3 B2u   1  2py          6.808844    -0.003573
                              3.941560     0.001903
                              2.281723    -0.065016
                              1.320863     0.042305
                              0.764632     0.158772
                              0.442637     0.278172
                              0.256237     0.293821
                              0.148333     0.248015
                              0.085868     0.114905
                              0.049708     0.032934
    2.3 B2u   1  2py          0.497174     1.000000
    3.3 B2u   1  2py          0.305874     1.000000
    1.4 B1g   1  3d2-         0.499639     1.000000
    2.4 B1g   1  3d2-         0.165988     1.000000
    1.5 B1u   1  2pz          6.808844    -0.003573
                              3.941560     0.001903
                              2.281723    -0.065016
                              1.320863     0.042305
                              0.764632     0.158772
                              0.442637     0.278172
                              0.256237     0.293821
                              0.148333     0.248015
                              0.085868     0.114905
                              0.049708     0.032934
    2.5 B1u   1  2pz          0.497174     1.000000
    3.5 B1u   1  2pz          0.305874     1.000000
    1.6 B2g   1  3d1+         0.499639     1.000000
    2.6 B2g   1  3d1+         0.165988     1.000000
    1.7 B3g   1  3d1-         0.499639     1.000000
    2.7 B3g   1  3d1-         0.165988     1.000000

 NUCLEAR CHARGE:                    6
 NUMBER OF PRIMITIVE AOS:          60
 NUMBER OF SYMMETRY AOS:           58
 NUMBER OF CONTRACTIONS:           22   (   7Ag  +   3B3u +   3B2u +   2B1g +   3B1u +   2B2g +   2B3g +   0Au  )
 NUMBER OF CORE ORBITALS:           0   (   0Ag  +   0B3u +   0B2u +   0B1g +   0B1u +   0B2g +   0B3g +   0Au  )
 NUMBER OF VALENCE ORBITALS:        4   (   1Ag  +   1B3u +   1B2u +   0B1g +   1B1u +   0B2g +   0B3g +   0Au  )


 NUCLEAR REPULSION ENERGY    0.00000000

 EXTRA SYMMETRY OF AOS IN SYMMETRY 1:   1 1 1 2 3 2 3

 Eigenvalues of metric

         1 0.410E-01 0.327E+00 0.397E+00 0.397E+00 0.160E+01 0.160E+01 0.263E+01
         2 0.187E-01 0.109E+00 0.287E+01
         3 0.187E-01 0.109E+00 0.287E+01
         4 0.397E+00 0.160E+01
         5 0.187E-01 0.109E+00 0.287E+01
         6 0.397E+00 0.160E+01
         7 0.397E+00 0.160E+01


 Contracted 2-electron integrals neglected if value below      1.0D-12
 AO integral compression algorithm  1   Integral accuracy      1.0D-12

     0.262 MB (compressed) written to integral file (100.0%)


 NUMBER OF SORTED TWO-ELECTRON INTEGRALS:       5272.     BUFFER LENGTH:  32768
 NUMBER OF SEGMENTS:   1  SEGMENT LENGTH:       5272      RECORD LENGTH: 524288

 Memory used in sort:       0.56 MW

 SORT1 READ       12220. AND WROTE        4734. INTEGRALS IN      1 RECORDS. CPU TIME:     0.00 SEC, REAL TIME:     0.01 SEC
 SORT2 READ        4734. AND WROTE        5272. INTEGRALS IN      1 RECORDS. CPU TIME:     0.00 SEC, REAL TIME:     0.01 SEC

 FILE SIZES:   FILE 1:    19.3 MBYTE,  FILE 4:     4.2 MBYTE,   TOTAL:     23.6 MBYTE

 OPERATOR DM      FOR CENTER  0  COORDINATES:    0.000000    0.000000    0.000000
 OPERATOR EKIN    FOR CENTER  0  COORDINATES:    0.000000    0.000000    0.000000
 OPERATOR POT     FOR CENTER  0  COORDINATES:    0.000000    0.000000    0.000000


 **********************************************************************************************************************************
 DATASETS  * FILE   NREC   LENGTH (MB)   RECORD NAMES
              1      20       19.12       500      610      700      900      950      970     1000      129      960     1100   
                                          VAR    BASINP    GEOM    SYMINP    ZMAT    AOBASIS   BASIS     P2S    ABASIS      S 
                                         1400     1410     1420     1200     1210     1080     1600     1650     1300     1700   
                                         EKIN       V       ECP      H0       H01     AOSYM     SMH    MOLCAS    ERIS     OPER   

 PROGRAMS   *        TOTAL       INT
 CPU TIMES  *         0.35      0.19
 REAL TIME  *         1.87 SEC
 DISK USED  *        23.83 MB      
 **********************************************************************************************************************************


 PROGRAM * RHF-SCF (OPEN SHELL)       Authors: W. Meyer, H.-J. Werner


 NUMBER OF ELECTRONS:       4+    2-    SPACE SYMMETRY=7    SPIN SYMMETRY: Triplet 
 CONVERGENCE THRESHOLDS:    1.00E-05 (Density)    1.00E-07 (Energy)
 MAX. NUMBER OF ITERATIONS:       60
 INTERPOLATION TYPE:            DIIS
 INTERPOLATION STEPS:              2 (START)      1 (STEP)
 LEVEL SHIFTS:                 -0.60 (CLOSED) -0.30 (OPEN) 

 Number of closed-shell orbitals:    2 (   1   1   0   0   0   0   0 )
 Number of open-shell orbitals:      2 (   0   0   1   0   1   0   0 )



   Atom=S  basis=ECP10MWB_GUESS    lmin=0  lmax=1

 Orbital guess generated from atomic densities. Full valence occupancy:    1   1   1   0   1   0   0   0


 Molecular orbital dump at record        2100.2

 ITERATION    DDIFF          GRAD             ENERGY        2-EL.EN.            DIPOLE MOMENTS         DIIS   ORB.
    1      0.000D+00      0.000D+00        -9.91395881     12.568508    0.00000    0.00000    0.00000    0    start
    2      0.000D+00      0.118D-01        -9.91844271     12.740228    0.00000    0.00000    0.00000    1    diag,B
    3      0.474D-01      0.338D-02        -9.91895955     12.796917    0.00000    0.00000    0.00000    2    diag,B
    4      0.209D-01      0.925D-03        -9.91899197     12.802060    0.00000    0.00000    0.00000    3    diag,B
    5      0.541D-02      0.214D-03        -9.91899344     12.801633    0.00000    0.00000    0.00000    4    diag,B
    6      0.917D-03      0.388D-04        -9.91899348     12.801433    0.00000    0.00000    0.00000    5    diag,B
    7      0.290D-03      0.683D-05        -9.91899348     12.801385    0.00000    0.00000    0.00000    6    fixocc
    8      0.707D-04      0.127D-05        -9.91899348     12.801406    0.00000    0.00000    0.00000    7    diag,B
    9      0.656D-05      0.365D-06        -9.91899348     12.801402    0.00000    0.00000    0.00000    0    orth

 Final alpha occupancy:   1   1   1   0   1   0   0
 Final beta  occupancy:   1   1   0   0   0   0   0

 !RHF STATE 1.7 Energy                 -9.918993482923
 Nuclear energy                         0.00000000
 One-electron energy                  -16.31969446
 Two-electron energy                    6.40070098
 Virial quotient                       -2.67894651
 !RHF STATE 1.7 Dipole moment           0.00000000     0.00000000     0.00000000
 Dipole moment /Debye                   0.00000000     0.00000000     0.00000000
 

 !RHF expec          <1.7|EKIN|1.7>     3.702572424592
 
 !RHF expec           <1.7|POT|1.7>    -3.636355076791

 ELECTRON ORBITALS
 =================


   Orb  Occ    Energy  Couls-En    Coefficients

                                   1 1s      1 1s      1 1s      1 3d0     1 3d2+    1 3d0     1 3d2+ 

   1.1   2    -0.8837   -3.9815  1.000082  0.000042 -0.000145  0.000046 -0.000080 -0.002981  0.005163

                                   1 2px     1 2px     1 2px  

   1.2   2    -0.3948   -2.9123  1.058068 -0.025258 -0.036279

                                   1 2py     1 2py     1 2py  

   1.3   +    -0.4806   -3.0251  0.942745  0.026117  0.034380

                                   1 2pz     1 2pz     1 2pz  

   1.5   +    -0.4806   -3.0251  0.942745  0.026117  0.034380

 HOMO      1.2    -0.394820 =     -10.7436eV
 LUMO      2.1     0.346921 =       9.4402eV
 LUMO-HOMO         0.741741 =      20.1838eV


 **********************************************************************************************************************************
 DATASETS  * FILE   NREC   LENGTH (MB)   RECORD NAMES
              1      20       19.12       500      610      700      900      950      970     1000      129      960     1100   
                                          VAR    BASINP    GEOM    SYMINP    ZMAT    AOBASIS   BASIS     P2S    ABASIS      S 
                                         1400     1410     1420     1200     1210     1080     1600     1650     1300     1700   
                                         EKIN       V       ECP      H0       H01     AOSYM     SMH    MOLCAS    ERIS     OPER   

              2       4        2.75       700     1000      520     2100   
                                         GEOM     BASIS   MCVARS     RHF  

 PROGRAMS   *        TOTAL        HF       INT
 CPU TIMES  *         0.41      0.06      0.19
 REAL TIME  *         2.09 SEC
 DISK USED  *        23.83 MB      
 **********************************************************************************************************************************
 SETTING SCF(I)         =        -9.91899348  AU                              
 SETTING _CC_NORM_MAX   =         2.00000000                                  


 PROGRAM * CI (Multireference internally contracted CI)     Authors: H.-J. Werner, P.J. Knowles, 1987


 Convergence thresholds:  THRVAR = 1.00D-08  THRDEN = 1.00D-06

 Number of optimized states:  1  Roots:   1
 Number of reference states:  1  Roots:   1

 Reference symmetry:                   7   Triplet 
 Number of electrons:                  6
 Maximum number of shells:             3
 Maximum number of spin couplings:     9

 Reference space:        1 conf        1 CSFs
 N elec internal:        6 conf        6 CSFs
 N-1 el internal:       14 conf       22 CSFs
 N-2 el internal:        8 conf       28 CSFs

 Number of electrons in valence space:                      6
 Maximum number of open shell orbitals in reference space:  2
 Maximum number of open shell orbitals in internal spaces:  6


 Number of closed-shell orbitals:   2 (   1   1   0   0   0   0   0 )
 Number of active  orbitals:        2 (   0   0   1   0   1   0   0 )
 Number of external orbitals:      18 (   6   2   2   2   2   2   2 )

 Molecular orbitals read from record     2100.2  Type=RHF/CANONICAL (state 1.7)

 Integral transformation finished. Total CPU:   0.00 sec, npass=  1  Memory used:   0.07 MW

 Number of p-space configurations:   1

 Reference wavefunction optimized for reference space (refopt=1)

 State     Reference Energy 
   1          -9.91899348

 Number of blocks in overlap matrix:    13   Smallest eigenvalue:  0.10D+01
 Number of N-2 electron functions:      13
 Number of N-1 electron functions:      22

 Number of internal configurations:                    1
 Number of singly external configurations:            52
 Number of doubly external configurations:           298
 Total number of contracted configurations:          351
 Total number of uncontracted configurations:        655

 Diagonal Coupling coefficients finished.               Storage:    1620 words, CPU-Time:      0.00 seconds.
 Energy denominators for pairs finished in 1 passes.    Storage:    1599 words, CPU-time:      0.00 seconds.

  ITER. STATE  ROOT     SQ.NORM     CORR.ENERGY   TOTAL ENERGY   ENERGY CHANGE       DEN1      VAR(S)    VAR(P)      TIME
    1     1     1     1.00000000     0.00000000    -9.91899348     0.00000000    -0.12329599  0.31D-01  0.41D-01     0.02
    2     1     1     1.06013296    -0.11315144   -10.03214492    -0.11315144    -0.00167635  0.60D-03  0.38D-03     0.02
    3     1     1     1.06119356    -0.11502979   -10.03402327    -0.00187835    -0.00003755  0.10D-04  0.11D-04     0.02
    4     1     1     1.06164941    -0.11507530   -10.03406879    -0.00004552    -0.00000073  0.21D-06  0.19D-06     0.02
    5     1     1     1.06170307    -0.11507611   -10.03406960    -0.00000081    -0.00000002  0.47D-08  0.54D-08     0.02
    6     1     1     1.06170048    -0.11507613   -10.03406962    -0.00000002    -0.00000000  0.80D-10  0.10D-09     0.02


 =====================================
 Analysis of CPU times by interactions
 =====================================

       I      S      P

 I   0.0%
 S   0.0%   0.0%
 P   0.0%   0.0%   0.0%

 Initialization: 100.0%
 Other:            0.0%

 Total CPU:        0.0 seconds
 =====================================



 Reference coefficients greater than 0.0500000
 =============================================
 22//           0.9705077

 Coefficients of singly external configurations greater than 0.0500000
 =====================================================================

 /2\/   2.1     0.0552120



 RESULTS FOR STATE 1.7
 =====================

 Coefficient of reference function:   C(0) = 0.97050772 (fixed)   0.97050772 (relaxed)

 Energy contributions of configuration classes

 CLASS          SQ.NORM        ECORR1        ECORR2
 +++++++++++++++++++++++++++++++++++++++++++++++++++
 Internals    0.00000000    0.00000000   -0.00000000
 Singles      0.02515113   -0.03832141   -0.03882061
 Pairs        0.03654934   -0.07675473   -0.07625552
 Total        1.06170048   -0.11507613   -0.11507613
 +++++++++++++++++++++++++++++++++++++++++++++++++++


 Reference energy                      -9.91899348
 Nuclear energy                         0.00000000
 Kinetic energy                         3.78902994
 One electron energy                  -16.24335630
 Two electron energy                    6.20928669
 Virial quotient                       -2.64818958
 Correlation energy                    -0.11507613
 !CI(SD) STATE 1.7 Energy             -10.034069617035

 Properties without orbital relaxation:

 !CI(SD) STATE 1.7 Dipole moment        0.00000000     0.00000000     0.00000000
 Dipole moment /Debye                   0.00000000     0.00000000     0.00000000

 Cluster corrected energies           -10.04116987 (Davidson, fixed reference)
 Cluster corrected energies           -10.04116987 (Davidson, relaxed reference)

 Cluster corrected energies           -10.03761637 (Pople, fixed reference)
 Cluster corrected energies           -10.03761637 (Pople, relaxed reference)

 

 !CI(SD) expec       <1.7|EKIN|1.7>     3.789029939588
 
 !CI(SD) expec        <1.7|POT|1.7>    -3.637393491203


 **********************************************************************************************************************************
 DATASETS  * FILE   NREC   LENGTH (MB)   RECORD NAMES
              1      21       19.13       500      610      700      900      950      970     1000      129      960     1100   
                                          VAR    BASINP    GEOM    SYMINP    ZMAT    AOBASIS   BASIS     P2S    ABASIS      S 
                                         1400     1410     1420     1200     1210     1080     1600     1650     1300     1700   
                                         EKIN       V       ECP      H0       H01     AOSYM     SMH    MOLCAS    ERIS     OPER   
                                         1380   
                                         JKOP   

              2       4        2.75       700     1000      520     2100   
                                         GEOM     BASIS   MCVARS     RHF  

 PROGRAMS   *        TOTAL        CI        HF       INT
 CPU TIMES  *         0.47      0.06      0.06      0.19
 REAL TIME  *         3.59 SEC
 DISK USED  *        23.83 MB      
 **********************************************************************************************************************************
 SETTING POSTHF(I)      =       -10.03406962  AU                              
                                                                                                                                                                                                                                                                

       SCF            POSTHF       EKIN          POT
    -9.91899348   -10.03406962   3.78902994   -3.63739349
                                                  

 CI/USERDEF energy=    -10.034069617035

        CI              HF-SCF  
    -10.03406962     -9.91899348
 **********************************************************************************************************************************
 Variable memory released
