TACC:  Starting up job 3912545 
TACC:  Starting parallel tasks... 
  Input file(s): Se.log.qmc.in-wfj.xml 

=====================================================
                    QMCPACK 3.7.9

       (c) Copyright 2003-  QMCPACK developers

                    Please cite:
 J. Kim et al. J. Phys. Cond. Mat. 30 195901 (2018)
      https://doi.org/10.1088/1361-648X/aab9c3

  Git branch: develop
  Last git commit: 9a049a3fb3e0d7110d61a924a52203fd8296522a
  Last git commit date: Mon Jul 1 13:42:43 2019 -0500
  Last git commit subject: Merge pull request #1686 from ye-luo/rename-to-LCAOHDFParser
=====================================================
  Global options 

  Total number of MPI ranks = 1024
  Number of MPI groups      = 1
  MPI group ID              = 0
  Number of ranks in group  = 1024
  MPI ranks per node        = 64
  OMP 1st level threads     = 1
  OMP nested threading disabled or only 1 thread on the 2nd level

  Precision used in this calculation, see definitions in the manual:
  Base precision      = double
  Full precision      = double

  Structure-of-arrays (SoA) optimization enabled

  Input XML = Se.log.qmc.in-wfj.xml

  Project = Se.log
  date    = 2019-07-01 20:06:50 CDT
  host    = c420-034.stampede2.tacc.utexas.edu

 Random Number
 -------------
  Offset for the random number seeds based on time: 554

  Range of prime numbers to use as seeds over processors and threads = 4021-13309


 Particle Set 
 ------------
  Name: ion0
  All the species have the same mass 1
  Particle set size: 1

 Particle Set 
 ------------
  Name: e
  All the species have the same mass 1
  Particle set size: 6

 Wavefunction setup: 
 ------------------- 
  Name: psi0
  LCAO: SoaAtomicBasisSet<MultiQuintic,1>
Reading BasisSet from HDF5 file:Se.log.h5
<input node="atomicBasisSet" name="gaussian" expandYlm="pyscf" angular="spherical" elementType="Se" normalized="no" type="Numerical" expM="0" />
  AO BasisSet for Se
   Spherical Harmonics contain (-1)^m factor
   Angular momentum m expanded as -l, ... ,l, with the exception of L=1 (1,-1,0)
   Grid is created by the input paremters in h5
    Using log grid ri = 1e-06 rf = 100 npts = 1001
   R(n,l,m,s) 0 0 0 0
   R(n,l,m,s) 1 0 0 0
   R(n,l,m,s) 2 1 0 0
   R(n,l,m,s) 3 1 0 0
   R(n,l,m,s) 4 2 0 0
Expanding Ylm as L=1 as (1,-1,0) and L>1 as -l,-l+1,...,l-1,l
   Adding 1 spherical orbitals
   Adding 1 spherical orbitals
   Adding 3 spherical orbitals
   Adding 3 spherical orbitals
   Adding 5 spherical orbitals
  Setting cutoff radius 13.9316

   Maximum Angular Momentum  = 2
   Number of Radial functors = 5
   Basis size                = 13

  Created SPOSet builder named 'LCAOBSet' of type molecularorbital
Reuse SPOSetBuilder "LCAOBSet" type MolecularOrbital
  Building SPOSet '' with '' basis set.
Reuse SPOSetBuilder "LCAOBSet" type MolecularOrbital
  Building SPOSet '' with '' basis set.
  Creating a determinant updet group=0 sposet=updet
  Reusing a SPO set updet
Using DiracDeterminant with DelayedUpdate engine
Using rank-1 Sherman-Morrison Fahy update

  Creating a determinant downdet group=1 sposet=downdet
  Reusing a SPO set downdet
Using DiracDeterminant with DelayedUpdate engine
Using rank-1 Sherman-Morrison Fahy update

  FermionWF = SlaterDet

   Jastrow
   -------
    Name: J2   Type: Two-Body   Function: Bspline

    Radial function for species: u - u
     Number of parameters: 10
     Cusp: -0.25
     Cutoff radius: 10

     Name                        Value Type Recompute Use Index
     ---- ---------------------------- ---- --------- --- -----
     uu_0                 4.624891e-01    1         1  ON     0
     uu_1                 2.682003e-01    1         1  ON     1
     uu_2                 1.290253e-01    1         1  ON     2
     uu_3                 2.585699e-02    1         1  ON     3
     uu_4                -5.185279e-02    1         1  ON     4
     uu_5                -1.060535e-01    1         1  ON     5
     uu_6                -1.429497e-01    1         1  ON     6
     uu_7                -1.626294e-01    1         1  ON     7
     uu_8                -1.603298e-01    1         1  ON     8
     uu_9                -1.364053e-01    1         1  ON     9

    Radial function for species: u - d
     Number of parameters: 10
     Cusp: -0.5
     Cutoff radius: 10

     Name                        Value Type Recompute Use Index
     ---- ---------------------------- ---- --------- --- -----
     ud_0                 7.682613e-01    1         1  ON     0
     ud_1                 4.253662e-01    1         1  ON     1
     ud_2                 2.139042e-01    1         1  ON     2
     ud_3                 8.256277e-02    1         1  ON     3
     ud_4                -8.465916e-03    1         1  ON     4
     ud_5                -7.605653e-02    1         1  ON     5
     ud_6                -1.266789e-01    1         1  ON     6
     ud_7                -1.604114e-01    1         1  ON     7
     ud_8                -1.710326e-01    1         1  ON     8
     ud_9                -1.615319e-01    1         1  ON     9


   Jastrow
   -------
    Name: J1   Type: One-Body   Function: Bspline

    Radial function for element: Se
     Number of parameters: 10
     Cusp: 0
     Cutoff radius: 10

      Name                        Value Type Recompute Use Index
     ----- ---------------------------- ---- --------- --- -----
     eSe_0                -1.034657e+00    1         1  ON     0
     eSe_1                -8.353838e-01    1         1  ON     1
     eSe_2                -5.536513e-01    1         1  ON     2
     eSe_3                -1.994952e-01    1         1  ON     3
     eSe_4                 1.085517e-01    1         1  ON     4
     eSe_5                 3.720658e-01    1         1  ON     5
     eSe_6                 5.668222e-01    1         1  ON     6
     eSe_7                 6.804711e-01    1         1  ON     7
     eSe_8                 6.201290e-01    1         1  ON     8
     eSe_9                 2.585059e-01    1         1  ON     9


   Jastrow
   -------
    Name: J3   Type: eeI   Function: polynomial

     Ion: Se   electron-electron: u - u
      Number of parameters for e-e: 3, for e-I: 3
      Cutoff radius: 10

Expected 26 parameters, but found 0 in PolynomialFunctor3D.
         Name                        Value Type Recompute Use Index
      ------- ---------------------------- ---- --------- --- -----
       uuSe_0                 0.000000e+00    1         1  ON     0
       uuSe_1                 0.000000e+00    1         1  ON     1
       uuSe_2                 0.000000e+00    1         1  ON     2
       uuSe_3                 0.000000e+00    1         1  ON     3
       uuSe_4                 0.000000e+00    1         1  ON     4
       uuSe_5                 0.000000e+00    1         1  ON     5
       uuSe_6                 0.000000e+00    1         1  ON     6
       uuSe_7                 0.000000e+00    1         1  ON     7
       uuSe_8                 0.000000e+00    1         1  ON     8
       uuSe_9                 0.000000e+00    1         1  ON     9
      uuSe_10                 0.000000e+00    1         1  ON    10
      uuSe_11                 0.000000e+00    1         1  ON    11
      uuSe_12                 0.000000e+00    1         1  ON    12
      uuSe_13                 0.000000e+00    1         1  ON    13
      uuSe_14                 0.000000e+00    1         1  ON    14
      uuSe_15                 0.000000e+00    1         1  ON    15
      uuSe_16                 0.000000e+00    1         1  ON    16
      uuSe_17                 0.000000e+00    1         1  ON    17
      uuSe_18                 0.000000e+00    1         1  ON    18
      uuSe_19                 0.000000e+00    1         1  ON    19
      uuSe_20                 0.000000e+00    1         1  ON    20
      uuSe_21                 0.000000e+00    1         1  ON    21
      uuSe_22                 0.000000e+00    1         1  ON    22
      uuSe_23                 0.000000e+00    1         1  ON    23
      uuSe_24                 0.000000e+00    1         1  ON    24
      uuSe_25                 0.000000e+00    1         1  ON    25

     Ion: Se   electron-electron: u - d
      Number of parameters for e-e: 3, for e-I: 3
      Cutoff radius: 10

Expected 26 parameters, but found 0 in PolynomialFunctor3D.
         Name                        Value Type Recompute Use Index
      ------- ---------------------------- ---- --------- --- -----
       udSe_0                 0.000000e+00    1         1  ON     0
       udSe_1                 0.000000e+00    1         1  ON     1
       udSe_2                 0.000000e+00    1         1  ON     2
       udSe_3                 0.000000e+00    1         1  ON     3
       udSe_4                 0.000000e+00    1         1  ON     4
       udSe_5                 0.000000e+00    1         1  ON     5
       udSe_6                 0.000000e+00    1         1  ON     6
       udSe_7                 0.000000e+00    1         1  ON     7
       udSe_8                 0.000000e+00    1         1  ON     8
       udSe_9                 0.000000e+00    1         1  ON     9
      udSe_10                 0.000000e+00    1         1  ON    10
      udSe_11                 0.000000e+00    1         1  ON    11
      udSe_12                 0.000000e+00    1         1  ON    12
      udSe_13                 0.000000e+00    1         1  ON    13
      udSe_14                 0.000000e+00    1         1  ON    14
      udSe_15                 0.000000e+00    1         1  ON    15
      udSe_16                 0.000000e+00    1         1  ON    16
      udSe_17                 0.000000e+00    1         1  ON    17
      udSe_18                 0.000000e+00    1         1  ON    18
      udSe_19                 0.000000e+00    1         1  ON    19
      udSe_20                 0.000000e+00    1         1  ON    20
      udSe_21                 0.000000e+00    1         1  ON    21
      udSe_22                 0.000000e+00    1         1  ON    22
      udSe_23                 0.000000e+00    1         1  ON    23
      udSe_24                 0.000000e+00    1         1  ON    24
      udSe_25                 0.000000e+00    1         1  ON    25

  QMCHamiltonian::addOperator Kinetic to H, physical Hamiltonian 
  QMCHamiltonian::addOperator ElecElec to H, physical Hamiltonian 
QMCHamiltonian::addOperatorType added type coulomb named ElecElec
  CoulombAA for ion0 is not created.  Number of particles == 1 and nonPeriodic

  ECPotential builder for pseudopotential 

  Adding pseudopotential for Se
   Linear grid  ri=0 rf=10 npts = 10001
    ECPComponentBuilder::buildSemiLocalAndLocal 
    Assuming Hartree unit
   Number of angular momentum channels 4
   Maximum angular momentum channel 3
   Creating a Linear Grid Rmax=3.085
  Using global grid with delta = 0.001
   Making L=3 a local potential with a radial cutoff of 9.999
    Non-local pseudopotential parameters
    Maximum angular mementum = 2
    Number of non-local channels = 3
       l(0)=0
       l(1)=1
       l(2)=2
    Cutoff radius = 3.085
    Spherical grids and weights: 
                        1                 0                 0       0.08333333333
                       -1   1.224646799e-16                 0       0.08333333333
             0.4472135955       0.894427191                 0       0.08333333333
            -0.4472135955      0.7236067977      0.5257311121       0.08333333333
             0.4472135955      0.2763932023      0.8506508084       0.08333333333
            -0.4472135955     -0.2763932023      0.8506508084       0.08333333333
             0.4472135955     -0.7236067977      0.5257311121       0.08333333333
            -0.4472135955      -0.894427191   1.095357397e-16       0.08333333333
             0.4472135955     -0.7236067977     -0.5257311121       0.08333333333
            -0.4472135955     -0.2763932023     -0.8506508084       0.08333333333
             0.4472135955      0.2763932023     -0.8506508084       0.08333333333
            -0.4472135955      0.7236067977     -0.5257311121       0.08333333333
    Maximum cutoff radius 3.085
  QMCHamiltonian::addOperator LocalECP to H, physical Hamiltonian 

  Using NonLocalECP potential 
    Maximum grid on a sphere for NonLocalECPotential: 12
  QMCHamiltonian::addOperator NonLocalECP to H, physical Hamiltonian 
QMCHamiltonian::addOperatorType added type pseudo named PseudoPot

  QMCHamiltonian::add2WalkerProperty added
    4 to P::PropertyList 
    0 to P::Collectables 
    starting Index of the observables in P::PropertyList = 9
ParticleSetPool::randomize 
<init source="ion0" target="e">
</init>
  Initialization Execution time = 0.4353 secs
=========================================================
 Summary of QMC systems 
=========================================================
ParticleSetPool has: 

  ParticleSet 'e' contains 6 particles :  u(4) d(2)

    u  5.1148302382e-01  1.2979937202e+00  1.2741449065e+00
    u  1.7614376724e-02  1.0325938475e+00  5.4778424253e-01
    u -1.5393103073e+00 -2.3044834442e+00 -1.1491154982e+00
    u -3.2286276242e-01  1.2286977346e+00 -2.6815507281e+00
    d  6.3487657800e-01  2.0972917427e-01 -6.8280501330e-02
    d  5.3907726370e-01  1.1867514162e+00 -4.6719751555e-01

  Distance table for dissimilar particles (A-B):
    source: ion0  target: e
    Using structure-of-arrays (SoA) data layout
    Distance computations use open boundary conditions in 3D.

  Distance table for similar particles (A-A):
    source/target: e
    Using structure-of-arrays (SoA) data layout
    Distance computations use open boundary conditions in 3D.


  ParticleSet 'ion0' contains 1 particles :  Se(1)

    Se  0.0000000000e+00  0.0000000000e+00  0.0000000000e+00


  Hamiltonian h0
  Kinetic         Kinetic energy
  ElecElec        CoulombAB source=e

  LocalECP        LocalECPotential: ion0
  NonLocalECP     NonLocalECPotential: ion0


=========================================================
  Start VMC
  File Root Se.log.s000 append = no 
=========================================================
  Adding 1 walkers to 0 existing sets
  Total number of walkers: 1.0240000000e+03
  Total weight: 1.0240000000e+03
  Resetting Properties of the walkers 1 x 13

<vmc function="put">
  qmc_counter=0  my_counter=0
  time step      = 1.5000000000e-01
  blocks         = 200
  steps          = 1
  substeps       = 5
  current        = 0
  target samples = 1.0240000000e+03
  walkers/mpi    = 1

  stepsbetweensamples = 200
<parameter name="blocks" condition="int">200</parameter>
<parameter name="blocks_between_recompute" condition="int">0</parameter>
<parameter name="check_properties" condition="int">100</parameter>
<parameter name="checkproperties" condition="int">100</parameter>
<parameter name="current" condition="int">0</parameter>
<parameter name="dmcwalkersperthread" condition="real">1.0000000000e+00</parameter>
<parameter name="maxcpusecs" condition="real">3.6000000000e+05</parameter>
<parameter name="record_configs" condition="int">0</parameter>
<parameter name="record_walkers" condition="int">200</parameter>
<parameter name="recordconfigs" condition="int">0</parameter>
<parameter name="recordwalkers" condition="int">200</parameter>
<parameter name="rewind" condition="int">0</parameter>
<parameter name="samples" condition="real">1.0240000000e+03</parameter>
<parameter name="samplesperthread" condition="real">1.0000000000e+00</parameter>
<parameter name="steps" condition="int">1</parameter>
<parameter name="stepsbetweensamples" condition="int">200</parameter>
<parameter name="store_configs" condition="int">0</parameter>
<parameter name="storeconfigs" condition="int">0</parameter>
<parameter name="sub_steps" condition="int">5</parameter>
<parameter name="substeps" condition="int">5</parameter>
<parameter name="tau" condition="au">1.5000000000e-01</parameter>
<parameter name="time_step" condition="au">1.5000000000e-01</parameter>
<parameter name="timestep" condition="au">1.5000000000e-01</parameter>
<parameter name="use_drift" condition="string">no</parameter>
<parameter name="usedrift" condition="string">no</parameter>
<parameter name="walkers" condition="int">1</parameter>
<parameter name="warmup_steps" condition="int">100</parameter>
<parameter name="warmupsteps" condition="int">100</parameter>
  DumpConfig==false Nothing (configurations, state) will be saved.
  Walker Samples are dumped every 200 steps.
</vmc>
  Set drift_modifier UNR parameter a = 1.0000000000e+00
  Initial partition of walkers 0 1 

  Using Particle by Particle moves
  Walker moves without drift
  Total Sample Size   =1024
  Walker distribution on root = 0 1 
  Using Locality Approximation
===== Memory Usage after the buffer registration =====
Available memory on node 0, free + buffers : 53411 MB
Memory footprint by rank 0 on node 0       : 575 MB
==================================================
  Anonymous Buffer size per walker : 2336 Bytes.
MEMORY increase 0 MB VMC::resetRun
====================================================
  SimpleFixedNodeBranch::finalize after a VMC block
    QMC counter        = 0
    time step          = 0.15
    reference energy   = -9.28407
    reference variance = 0.0683041
====================================================
  QMC Execution time = 2.1187e+00 secs
Loop execution max-interations = 20

=========================================================
  Start QMCFixedSampleLinearOptimize
  File Root Se.log.s001 append = no 
=========================================================
  Skip QMCDriver::putQMCInfo 
  Resetting Properties of the walkers 1 x 13

=========================================================
  Start VMC
  File Root Se.log.s001 append = no 
=========================================================
  Using the current 1 walkers.
  Total number of walkers: 1.0240e+03
  Total weight: 1.0240e+03
  Resetting Properties of the walkers 1 x 13

<vmc function="put">
  qmc_counter=0  my_counter=0
  time step      = 1.5000e-01
  blocks         = 500
  steps          = 1
  substeps       = 5
  current        = 0
  target samples = 5.1200e+05
  walkers/mpi    = 1

  stepsbetweensamples = 1
<parameter name="blocks" condition="int">500</parameter>
<parameter name="blocks_between_recompute" condition="int">0</parameter>
<parameter name="check_properties" condition="int">100</parameter>
<parameter name="checkproperties" condition="int">100</parameter>
<parameter name="current" condition="int">0</parameter>
<parameter name="dmcwalkersperthread" condition="real">5.0000e+02</parameter>
<parameter name="maxcpusecs" condition="real">3.6000e+05</parameter>
<parameter name="record_configs" condition="int">0</parameter>
<parameter name="record_walkers" condition="int">1</parameter>
<parameter name="recordconfigs" condition="int">0</parameter>
<parameter name="recordwalkers" condition="int">1</parameter>
<parameter name="rewind" condition="int">0</parameter>
<parameter name="samples" condition="real">5.1200e+05</parameter>
<parameter name="samplesperthread" condition="real">5.0000e+02</parameter>
<parameter name="steps" condition="int">1</parameter>
<parameter name="stepsbetweensamples" condition="int">1</parameter>
<parameter name="store_configs" condition="int">0</parameter>
<parameter name="storeconfigs" condition="int">0</parameter>
<parameter name="sub_steps" condition="int">5</parameter>
<parameter name="substeps" condition="int">5</parameter>
<parameter name="tau" condition="au">1.5000e-01</parameter>
<parameter name="time_step" condition="au">1.5000e-01</parameter>
<parameter name="timestep" condition="au">1.5000e-01</parameter>
<parameter name="use_drift" condition="string">no</parameter>
<parameter name="usedrift" condition="string">no</parameter>
<parameter name="walkers" condition="int">1</parameter>
<parameter name="warmup_steps" condition="int">0</parameter>
<parameter name="warmupsteps" condition="int">0</parameter>
  DumpConfig==false Nothing (configurations, state) will be saved.
  Walker Samples are dumped every 1 steps.
</vmc>
    Restarting, cummulative properties:
      energy     = -9.2841e+00
      variance   = 0.0000e+00
      r2accepted = 1.0000e-10
      r2proposed = 1.0000e-10
  Set drift_modifier UNR parameter a = 1.0000e+00
 Using QMCCostFunction::QMCCostFunction
  Set drift_modifier UNR parameter a = 1.0000e+00
  EstimatorManagerBase::add replace LocalEnergy estimator.
<optimization-report>
<vmc stage="main" blocks="500">
  Cannot make clones again. Use existing 1 clones
  Initial partition of walkers 0 1 

  Using Particle by Particle moves
  Walker moves without drift
  Total Sample Size   =512000
  Walker distribution on root = 0 1 
  Using Locality Approximation
===== Memory Usage after the buffer registration =====
Available memory on node 0, free + buffers : 53397 MB
Memory footprint by rank 0 on node 0       : 575 MB
==================================================
  Anonymous Buffer size per walker : 2336 Bytes.
MEMORY increase 0 MB VMC::resetRun
====================================================
  SimpleFixedNodeBranch::finalize after a VMC block
    QMC counter        = 1
    time step          = 0.15
    reference energy   = -9.27936
    reference variance = 0.0675163
====================================================
  Execution time = 3.8942e+00
</vmc>
<opt stage="setup">
  <log>
   Reading configurations from h5FileRoot Se.log.s001
  QMCCostFunction is created with 1 threads.
  Using Nonlocal PP in Opt: NonLocalECP
   Number of samples loaded to each thread : 500 
  VMC Eavg = -9.2854e+00
  VMC Evar = 3.6545e-01
  Total weights = 5.1200e+05
  Execution time = 1.3516e+00
  </log>
</opt>
<opt stage="main" walkers="512000">
  <log>

*****************************************
Building overlap and Hamiltonian matrices
*****************************************

Among totally 82 optimized parameters, largest LM parameter change : 3.9260e-02 at parameter 24

******************************************************************************
Init Cost =  -8.8028e+00    New Cost =  -8.8071e+00  Delta Cost =  -4.2183e-03
******************************************************************************

The new set of parameters is valid. Updating the trial wave function!

*****************************************************************************
Applying the update for shift_i =   1.0000e-02     and shift_s =   2.5000e-01
*****************************************************************************
  Execution time = 6.5223e+00
  </log>
  <optVariables href="Se.log.s001.opt.xml">
   uu_0                 4.491247e-01 1 1  ON 0
   uu_1                 2.504189e-01 1 1  ON 1
   uu_2                 1.165697e-01 1 1  ON 2
   uu_3                 2.135098e-02 1 1  ON 3
   uu_4                -4.385300e-02 1 1  ON 4
   uu_5                -9.430419e-02 1 1  ON 5
   uu_6                -1.294341e-01 1 1  ON 6
   uu_7                -1.512521e-01 1 1  ON 7
   uu_8                -1.500089e-01 1 1  ON 8
   uu_9                -1.296019e-01 1 1  ON 9
   ud_0                 7.970167e-01 1 1  ON 10
   ud_1                 4.430977e-01 1 1  ON 11
   ud_2                 2.223936e-01 1 1  ON 12
   ud_3                 7.782898e-02 1 1  ON 13
   ud_4                -9.925434e-03 1 1  ON 14
   ud_5                -7.630120e-02 1 1  ON 15
   ud_6                -1.265398e-01 1 1  ON 16
   ud_7                -1.639771e-01 1 1  ON 17
   ud_8                -1.752472e-01 1 1  ON 18
   ud_9                -1.631031e-01 1 1  ON 19
  eSe_0                -1.046541e+00 1 1  ON 20
  eSe_1                -8.183527e-01 1 1  ON 21
  eSe_2                -5.892171e-01 1 1  ON 22
  eSe_3                -2.177253e-01 1 1  ON 23
  eSe_4                 1.478117e-01 1 1  ON 24
  eSe_5                 3.566108e-01 1 1  ON 25
  eSe_6                 5.673741e-01 1 1  ON 26
  eSe_7                 6.745979e-01 1 1  ON 27
  eSe_8                 6.263289e-01 1 1  ON 28
  eSe_9                 2.762175e-01 1 1  ON 29
 uuSe_0                -3.416344e-05 1 1  ON 30
 uuSe_1                 4.567695e-05 1 1  ON 31
 uuSe_2                 5.604228e-05 1 1  ON 32
 uuSe_3                 1.329776e-05 1 1  ON 33
 uuSe_4                -1.095541e-05 1 1  ON 34
 uuSe_5                -1.876338e-06 1 1  ON 35
 uuSe_6                 1.319090e-04 1 1  ON 36
 uuSe_7                -1.380807e-06 1 1  ON 37
 uuSe_8                 2.885364e-05 1 1  ON 38
 uuSe_9                -6.986871e-05 1 1  ON 39
uuSe_10                -2.514635e-06 1 1  ON 40
uuSe_11                -2.095537e-05 1 1  ON 41
uuSe_12                -7.727313e-06 1 1  ON 42
uuSe_13                -1.011965e-05 1 1  ON 43
uuSe_14                 2.179007e-06 1 1  ON 44
uuSe_15                 5.034014e-07 1 1  ON 45
uuSe_16                 8.494770e-05 1 1  ON 46
uuSe_17                -2.719623e-05 1 1  ON 47
uuSe_18                 1.222335e-05 1 1  ON 48
uuSe_19                 2.996825e-06 1 1  ON 49
uuSe_20                -1.103266e-05 1 1  ON 50
uuSe_21                -7.908622e-07 1 1  ON 51
uuSe_22                -3.421661e-07 1 1  ON 52
uuSe_23                 4.155578e-06 1 1  ON 53
uuSe_24                -1.720635e-07 1 1  ON 54
uuSe_25                 6.506218e-08 1 1  ON 55
 udSe_0                -5.156826e-05 1 1  ON 56
 udSe_1                 4.212516e-05 1 1  ON 57
 udSe_2                 4.703591e-05 1 1  ON 58
 udSe_3                 7.135550e-05 1 1  ON 59
 udSe_4                 5.682285e-06 1 1  ON 60
 udSe_5                -6.754193e-06 1 1  ON 61
 udSe_6                 1.835649e-04 1 1  ON 62
 udSe_7                -2.025831e-05 1 1  ON 63
 udSe_8                -4.080726e-05 1 1  ON 64
 udSe_9                -9.265483e-05 1 1  ON 65
udSe_10                 3.315102e-05 1 1  ON 66
udSe_11                 4.660477e-06 1 1  ON 67
udSe_12                 1.607087e-05 1 1  ON 68
udSe_13                -8.430294e-05 1 1  ON 69
udSe_14                -2.149908e-05 1 1  ON 70
udSe_15                 4.524167e-07 1 1  ON 71
udSe_16                 1.580252e-04 1 1  ON 72
udSe_17                -1.194463e-04 1 1  ON 73
udSe_18                 1.054609e-05 1 1  ON 74
udSe_19                -5.970744e-06 1 1  ON 75
udSe_20                 4.940971e-06 1 1  ON 76
udSe_21                 4.804197e-06 1 1  ON 77
udSe_22                -2.149025e-07 1 1  ON 78
udSe_23                -1.172462e-06 1 1  ON 79
udSe_24                -9.089115e-07 1 1  ON 80
udSe_25                 1.269958e-07 1 1  ON 81
  </optVariables>
   Restore the number of walkers to 1, removing 0 walkers.
</opt>
</optimization-report>
  QMC Execution time = 6.535 secs
  Reusing QMCFixedSampleLinearOptimize
 Using QMCCostFunction::QMCCostFunction

=========================================================
  Start QMCFixedSampleLinearOptimize
  File Root Se.log.s002 append = no 
=========================================================
  Skip QMCDriver::putQMCInfo 
  Resetting Properties of the walkers 1 x 13

=========================================================
  Start VMC
  File Root Se.log.s002 append = no 
=========================================================
Using existing walkers 
  Resetting Properties of the walkers 1 x 13

<vmc function="put">
  qmc_counter=1  my_counter=1
  time step      = 1.5000e-01
  blocks         = 500
  steps          = 1
  substeps       = 5
  current        = 0
  target samples = 5.1200e+05
  walkers/mpi    = 1

  stepsbetweensamples = 1
<parameter name="blocks" condition="int">500</parameter>
<parameter name="blocks_between_recompute" condition="int">0</parameter>
<parameter name="check_properties" condition="int">100</parameter>
<parameter name="checkproperties" condition="int">100</parameter>
<parameter name="current" condition="int">0</parameter>
<parameter name="dmcwalkersperthread" condition="real">5.0000e+02</parameter>
<parameter name="maxcpusecs" condition="real">3.6000e+05</parameter>
<parameter name="record_configs" condition="int">0</parameter>
<parameter name="record_walkers" condition="int">1</parameter>
<parameter name="recordconfigs" condition="int">0</parameter>
<parameter name="recordwalkers" condition="int">1</parameter>
<parameter name="rewind" condition="int">0</parameter>
<parameter name="samples" condition="real">5.1200e+05</parameter>
<parameter name="samplesperthread" condition="real">5.0000e+02</parameter>
<parameter name="steps" condition="int">1</parameter>
<parameter name="stepsbetweensamples" condition="int">1</parameter>
<parameter name="store_configs" condition="int">0</parameter>
<parameter name="storeconfigs" condition="int">0</parameter>
<parameter name="sub_steps" condition="int">5</parameter>
<parameter name="substeps" condition="int">5</parameter>
<parameter name="tau" condition="au">1.5000e-01</parameter>
<parameter name="time_step" condition="au">1.5000e-01</parameter>
<parameter name="timestep" condition="au">1.5000e-01</parameter>
<parameter name="use_drift" condition="string">no</parameter>
<parameter name="usedrift" condition="string">no</parameter>
<parameter name="walkers" condition="int">1</parameter>
<parameter name="warmup_steps" condition="int">0</parameter>
<parameter name="warmupsteps" condition="int">0</parameter>
  DumpConfig==false Nothing (configurations, state) will be saved.
  Walker Samples are dumped every 1 steps.
</vmc>
  Set drift_modifier UNR parameter a = 1.0000e+00
  EstimatorManagerBase::add replace LocalEnergy estimator.
  Set drift_modifier UNR parameter a = 1.0000e+00
  EstimatorManagerBase::add replace LocalEnergy estimator.
<optimization-report>
<vmc stage="main" blocks="500">
  Cannot make clones again. Use existing 1 clones
  Initial partition of walkers 0 1 
  Using Particle by Particle moves
  Walker moves without drift
  Total Sample Size   =512000
  Walker distribution on root = 0 1 
  Using Locality Approximation
===== Memory Usage after the buffer registration =====
Available memory on node 0, free + buffers : 52709 MB
Memory footprint by rank 0 on node 0       : 590 MB
==================================================
====================================================
  SimpleFixedNodeBranch::finalize after a VMC block
    QMC counter        = 2
    time step          = 0.15
    reference energy   = -9.28137
    reference variance = 0.0392249
====================================================
  Execution time = 3.8821e+00
</vmc>
<opt stage="setup">
  <log>
   Reading configurations from h5FileRoot Se.log.s002
  QMCCostFunction is created with 1 threads.
  Using Nonlocal PP in Opt: NonLocalECP
   Number of samples loaded to each thread : 500 
  VMC Eavg = -9.2883e+00
  VMC Evar = 2.6849e-01
  Total weights = 5.1200e+05
  Execution time = 1.2804e+00
  </log>
</opt>
<opt stage="main" walkers="512000">
  <log>

*****************************************
Building overlap and Hamiltonian matrices
*****************************************

Among totally 82 optimized parameters, largest LM parameter change : 2.6413e-02 at parameter 22

******************************************************************************
Init Cost =  -8.8104e+00    New Cost =  -8.8108e+00  Delta Cost =  -4.1137e-04
******************************************************************************

The new set of parameters is valid. Updating the trial wave function!

*****************************************************************************
Applying the update for shift_i =   1.0000e-02     and shift_s =   6.2500e-02
*****************************************************************************
  Execution time = 6.4184e+00
  </log>
  <optVariables href="Se.log.s002.opt.xml">
   uu_0                 4.333687e-01 1 1  ON 0
   uu_1                 2.362983e-01 1 1  ON 1
   uu_2                 1.088190e-01 1 1  ON 2
   uu_3                 2.067582e-02 1 1  ON 3
   uu_4                -3.815647e-02 1 1  ON 4
   uu_5                -8.535564e-02 1 1  ON 5
   uu_6                -1.188394e-01 1 1  ON 6
   uu_7                -1.386180e-01 1 1  ON 7
   uu_8                -1.418283e-01 1 1  ON 8
   uu_9                -1.236405e-01 1 1  ON 9
   ud_0                 8.200360e-01 1 1  ON 10
   ud_1                 4.605349e-01 1 1  ON 11
   ud_2                 2.325120e-01 1 1  ON 12
   ud_3                 8.102892e-02 1 1  ON 13
   ud_4                -8.046006e-03 1 1  ON 14
   ud_5                -7.467133e-02 1 1  ON 15
   ud_6                -1.254517e-01 1 1  ON 16
   ud_7                -1.636281e-01 1 1  ON 17
   ud_8                -1.756415e-01 1 1  ON 18
   ud_9                -1.640714e-01 1 1  ON 19
  eSe_0                -1.047223e+00 1 1  ON 20
  eSe_1                -8.208033e-01 1 1  ON 21
  eSe_2                -6.156305e-01 1 1  ON 22
  eSe_3                -2.303043e-01 1 1  ON 23
  eSe_4                 1.680397e-01 1 1  ON 24
  eSe_5                 3.498645e-01 1 1  ON 25
  eSe_6                 5.654085e-01 1 1  ON 26
  eSe_7                 6.804459e-01 1 1  ON 27
  eSe_8                 6.341848e-01 1 1  ON 28
  eSe_9                 2.887445e-01 1 1  ON 29
 uuSe_0                -4.434586e-05 1 1  ON 30
 uuSe_1                 5.052902e-05 1 1  ON 31
 uuSe_2                 7.406026e-05 1 1  ON 32
 uuSe_3                 1.871071e-05 1 1  ON 33
 uuSe_4                -1.498354e-05 1 1  ON 34
 uuSe_5                -7.265087e-07 1 1  ON 35
 uuSe_6                 1.583060e-04 1 1  ON 36
 uuSe_7                 7.102501e-06 1 1  ON 37
 uuSe_8                 4.279758e-05 1 1  ON 38
 uuSe_9                -8.456342e-05 1 1  ON 39
uuSe_10                -1.694763e-06 1 1  ON 40
uuSe_11                -3.492695e-05 1 1  ON 41
uuSe_12                -1.172749e-05 1 1  ON 42
uuSe_13                -1.313496e-05 1 1  ON 43
uuSe_14                 4.958845e-06 1 1  ON 44
uuSe_15                 6.256291e-07 1 1  ON 45
uuSe_16                 1.053226e-04 1 1  ON 46
uuSe_17                -3.495654e-05 1 1  ON 47
uuSe_18                 2.097907e-05 1 1  ON 48
uuSe_19                 4.353569e-06 1 1  ON 49
uuSe_20                -1.338835e-05 1 1  ON 50
uuSe_21                -2.255761e-06 1 1  ON 51
uuSe_22                -3.789791e-07 1 1  ON 52
uuSe_23                 5.056161e-06 1 1  ON 53
uuSe_24                 3.434141e-08 1 1  ON 54
uuSe_25                 5.185905e-08 1 1  ON 55
 udSe_0                -6.904055e-05 1 1  ON 56
 udSe_1                 2.326333e-05 1 1  ON 57
 udSe_2                 6.610688e-05 1 1  ON 58
 udSe_3                 1.055500e-04 1 1  ON 59
 udSe_4                 8.550187e-06 1 1  ON 60
 udSe_5                -5.038702e-06 1 1  ON 61
 udSe_6                 2.024954e-04 1 1  ON 62
 udSe_7                 5.161002e-06 1 1  ON 63
 udSe_8                -4.474056e-05 1 1  ON 64
 udSe_9                -1.069115e-04 1 1  ON 65
udSe_10                 5.438873e-05 1 1  ON 66
udSe_11                -1.786247e-05 1 1  ON 67
udSe_12                 2.063238e-05 1 1  ON 68
udSe_13                -1.188900e-04 1 1  ON 69
udSe_14                -2.561972e-05 1 1  ON 70
udSe_15                 4.124679e-07 1 1  ON 71
udSe_16                 2.035023e-04 1 1  ON 72
udSe_17                -1.666625e-04 1 1  ON 73
udSe_18                 3.006341e-05 1 1  ON 74
udSe_19                -9.175274e-06 1 1  ON 75
udSe_20                 8.409273e-06 1 1  ON 76
udSe_21                 3.969147e-06 1 1  ON 77
udSe_22                 5.225510e-08 1 1  ON 78
udSe_23                -1.916984e-06 1 1  ON 79
udSe_24                -7.826257e-07 1 1  ON 80
udSe_25                 8.965033e-08 1 1  ON 81
  </optVariables>
   Restore the number of walkers to 1, removing 0 walkers.
</opt>
</optimization-report>
  QMC Execution time = 6.43 secs
  Reusing QMCFixedSampleLinearOptimize
 Using QMCCostFunction::QMCCostFunction

=========================================================
  Start QMCFixedSampleLinearOptimize
  File Root Se.log.s003 append = no 
=========================================================
  Skip QMCDriver::putQMCInfo 
  Resetting Properties of the walkers 1 x 13

=========================================================
  Start VMC
  File Root Se.log.s003 append = no 
=========================================================
Using existing walkers 
  Resetting Properties of the walkers 1 x 13

<vmc function="put">
  qmc_counter=2  my_counter=2
  time step      = 1.5000e-01
  blocks         = 500
  steps          = 1
  substeps       = 5
  current        = 0
  target samples = 5.1200e+05
  walkers/mpi    = 1

  stepsbetweensamples = 1
<parameter name="blocks" condition="int">500</parameter>
<parameter name="blocks_between_recompute" condition="int">0</parameter>
<parameter name="check_properties" condition="int">100</parameter>
<parameter name="checkproperties" condition="int">100</parameter>
<parameter name="current" condition="int">0</parameter>
<parameter name="dmcwalkersperthread" condition="real">5.0000e+02</parameter>
<parameter name="maxcpusecs" condition="real">3.6000e+05</parameter>
<parameter name="record_configs" condition="int">0</parameter>
<parameter name="record_walkers" condition="int">1</parameter>
<parameter name="recordconfigs" condition="int">0</parameter>
<parameter name="recordwalkers" condition="int">1</parameter>
<parameter name="rewind" condition="int">0</parameter>
<parameter name="samples" condition="real">5.1200e+05</parameter>
<parameter name="samplesperthread" condition="real">5.0000e+02</parameter>
<parameter name="steps" condition="int">1</parameter>
<parameter name="stepsbetweensamples" condition="int">1</parameter>
<parameter name="store_configs" condition="int">0</parameter>
<parameter name="storeconfigs" condition="int">0</parameter>
<parameter name="sub_steps" condition="int">5</parameter>
<parameter name="substeps" condition="int">5</parameter>
<parameter name="tau" condition="au">1.5000e-01</parameter>
<parameter name="time_step" condition="au">1.5000e-01</parameter>
<parameter name="timestep" condition="au">1.5000e-01</parameter>
<parameter name="use_drift" condition="string">no</parameter>
<parameter name="usedrift" condition="string">no</parameter>
<parameter name="walkers" condition="int">1</parameter>
<parameter name="warmup_steps" condition="int">0</parameter>
<parameter name="warmupsteps" condition="int">0</parameter>
  DumpConfig==false Nothing (configurations, state) will be saved.
  Walker Samples are dumped every 1 steps.
</vmc>
  Set drift_modifier UNR parameter a = 1.0000e+00
  EstimatorManagerBase::add replace LocalEnergy estimator.
  Set drift_modifier UNR parameter a = 1.0000e+00
  EstimatorManagerBase::add replace LocalEnergy estimator.
<optimization-report>
<vmc stage="main" blocks="500">
  Cannot make clones again. Use existing 1 clones
  Initial partition of walkers 0 1 
  Using Particle by Particle moves
  Walker moves without drift
  Total Sample Size   =512000
  Walker distribution on root = 0 1 
  Using Locality Approximation
===== Memory Usage after the buffer registration =====
Available memory on node 0, free + buffers : 52704 MB
Memory footprint by rank 0 on node 0       : 593 MB
==================================================
====================================================
  SimpleFixedNodeBranch::finalize after a VMC block
    QMC counter        = 3
    time step          = 0.15
    reference energy   = -9.29366
    reference variance = 0.0488089
====================================================
  Execution time = 3.8758e+00
</vmc>
<opt stage="setup">
  <log>
   Reading configurations from h5FileRoot Se.log.s003
  QMCCostFunction is created with 1 threads.
  Using Nonlocal PP in Opt: NonLocalECP
   Number of samples loaded to each thread : 500 
  VMC Eavg = -9.2876e+00
  VMC Evar = 3.4425e-01
  Total weights = 5.1200e+05
  Execution time = 1.2528e+00
  </log>
</opt>
<opt stage="main" walkers="512000">
  <log>

*****************************************
Building overlap and Hamiltonian matrices
*****************************************

Among totally 82 optimized parameters, largest LM parameter change : 2.1756e-02 at parameter 22

******************************************************************************
Init Cost =  -8.8060e+00    New Cost =  -8.8066e+00  Delta Cost =  -6.4377e-04
******************************************************************************

The new set of parameters is valid. Updating the trial wave function!

*****************************************************************************
Applying the update for shift_i =   1.0000e-02     and shift_s =   1.5625e-02
*****************************************************************************
  Execution time = 6.3468e+00
  </log>
  <optVariables href="Se.log.s003.opt.xml">
   uu_0                 4.202343e-01 1 1  ON 0
   uu_1                 2.249389e-01 1 1  ON 1
   uu_2                 1.036840e-01 1 1  ON 2
   uu_3                 2.253151e-02 1 1  ON 3
   uu_4                -3.228520e-02 1 1  ON 4
   uu_5                -7.800603e-02 1 1  ON 5
   uu_6                -1.108566e-01 1 1  ON 6
   uu_7                -1.304931e-01 1 1  ON 7
   uu_8                -1.351654e-01 1 1  ON 8
   uu_9                -1.151874e-01 1 1  ON 9
   ud_0                 8.285553e-01 1 1  ON 10
   ud_1                 4.653894e-01 1 1  ON 11
   ud_2                 2.348470e-01 1 1  ON 12
   ud_3                 8.207628e-02 1 1  ON 13
   ud_4                -5.119888e-03 1 1  ON 14
   ud_5                -6.936079e-02 1 1  ON 15
   ud_6                -1.169609e-01 1 1  ON 16
   ud_7                -1.535968e-01 1 1  ON 17
   ud_8                -1.750463e-01 1 1  ON 18
   ud_9                -1.668561e-01 1 1  ON 19
  eSe_0                -1.042795e+00 1 1  ON 20
  eSe_1                -8.401342e-01 1 1  ON 21
  eSe_2                -6.373869e-01 1 1  ON 22
  eSe_3                -2.398375e-01 1 1  ON 23
  eSe_4                 1.810282e-01 1 1  ON 24
  eSe_5                 3.445932e-01 1 1  ON 25
  eSe_6                 5.642451e-01 1 1  ON 26
  eSe_7                 6.883882e-01 1 1  ON 27
  eSe_8                 6.521339e-01 1 1  ON 28
  eSe_9                 3.045515e-01 1 1  ON 29
 uuSe_0                -4.531135e-05 1 1  ON 30
 uuSe_1                 2.461971e-05 1 1  ON 31
 uuSe_2                 6.118703e-05 1 1  ON 32
 uuSe_3                 3.972854e-05 1 1  ON 33
 uuSe_4                -8.127355e-06 1 1  ON 34
 uuSe_5                 5.974012e-07 1 1  ON 35
 uuSe_6                 1.197312e-04 1 1  ON 36
 uuSe_7                 2.287792e-05 1 1  ON 37
 uuSe_8                 2.346328e-05 1 1  ON 38
 uuSe_9                -5.663758e-05 1 1  ON 39
uuSe_10                 1.448454e-05 1 1  ON 40
uuSe_11                -3.935097e-05 1 1  ON 41
uuSe_12                -4.957625e-06 1 1  ON 42
uuSe_13                -4.274977e-05 1 1  ON 43
uuSe_14                 4.440737e-07 1 1  ON 44
uuSe_15                 4.219484e-07 1 1  ON 45
uuSe_16                 9.259190e-05 1 1  ON 46
uuSe_17                -6.431559e-05 1 1  ON 47
uuSe_18                 3.244168e-05 1 1  ON 48
uuSe_19                 7.348550e-07 1 1  ON 49
uuSe_20                -1.031687e-06 1 1  ON 50
uuSe_21                -3.340614e-06 1 1  ON 51
uuSe_22                 3.259093e-08 1 1  ON 52
uuSe_23                 1.992205e-06 1 1  ON 53
uuSe_24                 4.150246e-07 1 1  ON 54
uuSe_25                -3.290527e-08 1 1  ON 55
 udSe_0                -5.961666e-05 1 1  ON 56
 udSe_1                 5.102919e-05 1 1  ON 57
 udSe_2                 6.027681e-05 1 1  ON 58
 udSe_3                 9.399291e-05 1 1  ON 59
 udSe_4                 8.619842e-06 1 1  ON 60
 udSe_5                -7.352105e-06 1 1  ON 61
 udSe_6                 2.304856e-04 1 1  ON 62
 udSe_7                -1.396870e-05 1 1  ON 63
 udSe_8                -5.236760e-05 1 1  ON 64
 udSe_9                -1.312413e-04 1 1  ON 65
udSe_10                 4.631691e-05 1 1  ON 66
udSe_11                -3.199523e-06 1 1  ON 67
udSe_12                 2.234325e-05 1 1  ON 68
udSe_13                -1.081635e-04 1 1  ON 69
udSe_14                -2.793418e-05 1 1  ON 70
udSe_15                 4.306406e-07 1 1  ON 71
udSe_16                 2.240313e-04 1 1  ON 72
udSe_17                -1.610666e-04 1 1  ON 73
udSe_18                 2.011597e-05 1 1  ON 74
udSe_19                -9.158932e-06 1 1  ON 75
udSe_20                 2.727729e-06 1 1  ON 76
udSe_21                 5.657927e-06 1 1  ON 77
udSe_22                -7.083781e-08 1 1  ON 78
udSe_23                -7.935178e-07 1 1  ON 79
udSe_24                -1.051144e-06 1 1  ON 80
udSe_25                 1.173373e-07 1 1  ON 81
  </optVariables>
   Restore the number of walkers to 1, removing 0 walkers.
</opt>
</optimization-report>
  QMC Execution time = 6.359 secs
  Reusing QMCFixedSampleLinearOptimize
 Using QMCCostFunction::QMCCostFunction

=========================================================
  Start QMCFixedSampleLinearOptimize
  File Root Se.log.s004 append = no 
=========================================================
  Skip QMCDriver::putQMCInfo 
  Resetting Properties of the walkers 1 x 13

=========================================================
  Start VMC
  File Root Se.log.s004 append = no 
=========================================================
Using existing walkers 
  Resetting Properties of the walkers 1 x 13

<vmc function="put">
  qmc_counter=3  my_counter=3
  time step      = 1.5000e-01
  blocks         = 500
  steps          = 1
  substeps       = 5
  current        = 0
  target samples = 5.1200e+05
  walkers/mpi    = 1

  stepsbetweensamples = 1
<parameter name="blocks" condition="int">500</parameter>
<parameter name="blocks_between_recompute" condition="int">0</parameter>
<parameter name="check_properties" condition="int">100</parameter>
<parameter name="checkproperties" condition="int">100</parameter>
<parameter name="current" condition="int">0</parameter>
<parameter name="dmcwalkersperthread" condition="real">5.0000e+02</parameter>
<parameter name="maxcpusecs" condition="real">3.6000e+05</parameter>
<parameter name="record_configs" condition="int">0</parameter>
<parameter name="record_walkers" condition="int">1</parameter>
<parameter name="recordconfigs" condition="int">0</parameter>
<parameter name="recordwalkers" condition="int">1</parameter>
<parameter name="rewind" condition="int">0</parameter>
<parameter name="samples" condition="real">5.1200e+05</parameter>
<parameter name="samplesperthread" condition="real">5.0000e+02</parameter>
<parameter name="steps" condition="int">1</parameter>
<parameter name="stepsbetweensamples" condition="int">1</parameter>
<parameter name="store_configs" condition="int">0</parameter>
<parameter name="storeconfigs" condition="int">0</parameter>
<parameter name="sub_steps" condition="int">5</parameter>
<parameter name="substeps" condition="int">5</parameter>
<parameter name="tau" condition="au">1.5000e-01</parameter>
<parameter name="time_step" condition="au">1.5000e-01</parameter>
<parameter name="timestep" condition="au">1.5000e-01</parameter>
<parameter name="use_drift" condition="string">no</parameter>
<parameter name="usedrift" condition="string">no</parameter>
<parameter name="walkers" condition="int">1</parameter>
<parameter name="warmup_steps" condition="int">0</parameter>
<parameter name="warmupsteps" condition="int">0</parameter>
  DumpConfig==false Nothing (configurations, state) will be saved.
  Walker Samples are dumped every 1 steps.
</vmc>
  Set drift_modifier UNR parameter a = 1.0000e+00
  EstimatorManagerBase::add replace LocalEnergy estimator.
  Set drift_modifier UNR parameter a = 1.0000e+00
  EstimatorManagerBase::add replace LocalEnergy estimator.
<optimization-report>
<vmc stage="main" blocks="500">
  Cannot make clones again. Use existing 1 clones
  Initial partition of walkers 0 1 
  Using Particle by Particle moves
  Walker moves without drift
  Total Sample Size   =512000
  Walker distribution on root = 0 1 
  Using Locality Approximation
===== Memory Usage after the buffer registration =====
Available memory on node 0, free + buffers : 52700 MB
Memory footprint by rank 0 on node 0       : 596 MB
==================================================
====================================================
  SimpleFixedNodeBranch::finalize after a VMC block
    QMC counter        = 4
    time step          = 0.15
    reference energy   = -9.29141
    reference variance = 0.0382106
====================================================
  Execution time = 3.8753e+00
</vmc>
<opt stage="setup">
  <log>
   Reading configurations from h5FileRoot Se.log.s004
  QMCCostFunction is created with 1 threads.
  Using Nonlocal PP in Opt: NonLocalECP
   Number of samples loaded to each thread : 500 
  VMC Eavg = -9.2881e+00
  VMC Evar = 3.5276e-01
  Total weights = 5.1200e+05
  Execution time = 1.2501e+00
  </log>
</opt>
<opt stage="main" walkers="512000">
  <log>

*****************************************
Building overlap and Hamiltonian matrices
*****************************************

Among totally 82 optimized parameters, largest LM parameter change : 1.8013e-02 at parameter 29

******************************************************************************
Init Cost =  -8.8061e+00    New Cost =  -8.8062e+00  Delta Cost =  -1.0045e-04
******************************************************************************

The new set of parameters is valid. Updating the trial wave function!

*****************************************************************************
Applying the update for shift_i =   1.0000e-02     and shift_s =   3.9062e-03
*****************************************************************************
  Execution time = 6.3281e+00
  </log>
  <optVariables href="Se.log.s004.opt.xml">
   uu_0                 4.087989e-01 1 1  ON 0
   uu_1                 2.178263e-01 1 1  ON 1
   uu_2                 1.039388e-01 1 1  ON 2
   uu_3                 2.596522e-02 1 1  ON 3
   uu_4                -2.610726e-02 1 1  ON 4
   uu_5                -7.078163e-02 1 1  ON 5
   uu_6                -1.059902e-01 1 1  ON 6
   uu_7                -1.271656e-01 1 1  ON 7
   uu_8                -1.333533e-01 1 1  ON 8
   uu_9                -1.121494e-01 1 1  ON 9
   ud_0                 8.321738e-01 1 1  ON 10
   ud_1                 4.688120e-01 1 1  ON 11
   ud_2                 2.363385e-01 1 1  ON 12
   ud_3                 8.314333e-02 1 1  ON 13
   ud_4                -4.404892e-03 1 1  ON 14
   ud_5                -6.857936e-02 1 1  ON 15
   ud_6                -1.137523e-01 1 1  ON 16
   ud_7                -1.472242e-01 1 1  ON 17
   ud_8                -1.657585e-01 1 1  ON 18
   ud_9                -1.605461e-01 1 1  ON 19
  eSe_0                -1.042657e+00 1 1  ON 20
  eSe_1                -8.473425e-01 1 1  ON 21
  eSe_2                -6.509452e-01 1 1  ON 22
  eSe_3                -2.481940e-01 1 1  ON 23
  eSe_4                 1.790187e-01 1 1  ON 24
  eSe_5                 3.390901e-01 1 1  ON 25
  eSe_6                 5.628262e-01 1 1  ON 26
  eSe_7                 6.907122e-01 1 1  ON 27
  eSe_8                 6.646927e-01 1 1  ON 28
  eSe_9                 3.225644e-01 1 1  ON 29
 uuSe_0                -3.838521e-05 1 1  ON 30
 uuSe_1                 4.499746e-05 1 1  ON 31
 uuSe_2                 6.693951e-05 1 1  ON 32
 uuSe_3                 2.582048e-05 1 1  ON 33
 uuSe_4                -1.243648e-05 1 1  ON 34
 uuSe_5                 4.788067e-07 1 1  ON 35
 uuSe_6                 1.457897e-04 1 1  ON 36
 uuSe_7                 1.696330e-05 1 1  ON 37
 uuSe_8                 3.762732e-05 1 1  ON 38
 uuSe_9                -8.460878e-05 1 1  ON 39
uuSe_10                 4.050266e-06 1 1  ON 40
uuSe_11                -4.302909e-05 1 1  ON 41
uuSe_12                -9.349392e-06 1 1  ON 42
uuSe_13                -2.080625e-05 1 1  ON 43
uuSe_14                 4.406974e-06 1 1  ON 44
uuSe_15                 4.256159e-07 1 1  ON 45
uuSe_16                 1.207052e-04 1 1  ON 46
uuSe_17                -4.876266e-05 1 1  ON 47
uuSe_18                 3.192479e-05 1 1  ON 48
uuSe_19                 2.209217e-06 1 1  ON 49
uuSe_20                -1.491596e-05 1 1  ON 50
uuSe_21                -3.677903e-06 1 1  ON 51
uuSe_22                -2.753240e-09 1 1  ON 52
uuSe_23                 6.117661e-06 1 1  ON 53
uuSe_24                 2.458078e-07 1 1  ON 54
uuSe_25                -2.222752e-08 1 1  ON 55
 udSe_0                -6.574071e-05 1 1  ON 56
 udSe_1                 4.307437e-05 1 1  ON 57
 udSe_2                 5.774014e-05 1 1  ON 58
 udSe_3                 9.836612e-05 1 1  ON 59
 udSe_4                 9.926506e-06 1 1  ON 60
 udSe_5                -7.547978e-06 1 1  ON 61
 udSe_6                 2.189938e-04 1 1  ON 62
 udSe_7                -1.336777e-05 1 1  ON 63
 udSe_8                -5.924017e-05 1 1  ON 64
 udSe_9                -1.127918e-04 1 1  ON 65
udSe_10                 4.896135e-05 1 1  ON 66
udSe_11                 2.162308e-06 1 1  ON 67
udSe_12                 2.389382e-05 1 1  ON 68
udSe_13                -1.185029e-04 1 1  ON 69
udSe_14                -2.983380e-05 1 1  ON 70
udSe_15                 4.899477e-07 1 1  ON 71
udSe_16                 2.017217e-04 1 1  ON 72
udSe_17                -1.654730e-04 1 1  ON 73
udSe_18                 1.754185e-05 1 1  ON 74
udSe_19                -9.264918e-06 1 1  ON 75
udSe_20                 1.147658e-05 1 1  ON 76
udSe_21                 6.073976e-06 1 1  ON 77
udSe_22                -1.532689e-07 1 1  ON 78
udSe_23                -3.370020e-06 1 1  ON 79
udSe_24                -1.018620e-06 1 1  ON 80
udSe_25                 1.360847e-07 1 1  ON 81
  </optVariables>
   Restore the number of walkers to 1, removing 0 walkers.
</opt>
</optimization-report>
  QMC Execution time = 6.34 secs
  Reusing QMCFixedSampleLinearOptimize
 Using QMCCostFunction::QMCCostFunction

=========================================================
  Start QMCFixedSampleLinearOptimize
  File Root Se.log.s005 append = no 
=========================================================
  Skip QMCDriver::putQMCInfo 
  Resetting Properties of the walkers 1 x 13

=========================================================
  Start VMC
  File Root Se.log.s005 append = no 
=========================================================
Using existing walkers 
  Resetting Properties of the walkers 1 x 13

<vmc function="put">
  qmc_counter=4  my_counter=4
  time step      = 1.5000e-01
  blocks         = 500
  steps          = 1
  substeps       = 5
  current        = 0
  target samples = 5.1200e+05
  walkers/mpi    = 1

  stepsbetweensamples = 1
<parameter name="blocks" condition="int">500</parameter>
<parameter name="blocks_between_recompute" condition="int">0</parameter>
<parameter name="check_properties" condition="int">100</parameter>
<parameter name="checkproperties" condition="int">100</parameter>
<parameter name="current" condition="int">0</parameter>
<parameter name="dmcwalkersperthread" condition="real">5.0000e+02</parameter>
<parameter name="maxcpusecs" condition="real">3.6000e+05</parameter>
<parameter name="record_configs" condition="int">0</parameter>
<parameter name="record_walkers" condition="int">1</parameter>
<parameter name="recordconfigs" condition="int">0</parameter>
<parameter name="recordwalkers" condition="int">1</parameter>
<parameter name="rewind" condition="int">0</parameter>
<parameter name="samples" condition="real">5.1200e+05</parameter>
<parameter name="samplesperthread" condition="real">5.0000e+02</parameter>
<parameter name="steps" condition="int">1</parameter>
<parameter name="stepsbetweensamples" condition="int">1</parameter>
<parameter name="store_configs" condition="int">0</parameter>
<parameter name="storeconfigs" condition="int">0</parameter>
<parameter name="sub_steps" condition="int">5</parameter>
<parameter name="substeps" condition="int">5</parameter>
<parameter name="tau" condition="au">1.5000e-01</parameter>
<parameter name="time_step" condition="au">1.5000e-01</parameter>
<parameter name="timestep" condition="au">1.5000e-01</parameter>
<parameter name="use_drift" condition="string">no</parameter>
<parameter name="usedrift" condition="string">no</parameter>
<parameter name="walkers" condition="int">1</parameter>
<parameter name="warmup_steps" condition="int">0</parameter>
<parameter name="warmupsteps" condition="int">0</parameter>
  DumpConfig==false Nothing (configurations, state) will be saved.
  Walker Samples are dumped every 1 steps.
</vmc>
  Set drift_modifier UNR parameter a = 1.0000e+00
  EstimatorManagerBase::add replace LocalEnergy estimator.
  Set drift_modifier UNR parameter a = 1.0000e+00
  EstimatorManagerBase::add replace LocalEnergy estimator.
<optimization-report>
<vmc stage="main" blocks="500">
  Cannot make clones again. Use existing 1 clones
  Initial partition of walkers 0 1 
  Using Particle by Particle moves
  Walker moves without drift
  Total Sample Size   =512000
  Walker distribution on root = 0 1 
  Using Locality Approximation
===== Memory Usage after the buffer registration =====
Available memory on node 0, free + buffers : 52696 MB
Memory footprint by rank 0 on node 0       : 599 MB
==================================================
====================================================
  SimpleFixedNodeBranch::finalize after a VMC block
    QMC counter        = 5
    time step          = 0.15
    reference energy   = -9.297
    reference variance = 0.0358094
====================================================
  Execution time = 3.8672e+00
</vmc>
<opt stage="setup">
  <log>
   Reading configurations from h5FileRoot Se.log.s005
  QMCCostFunction is created with 1 threads.
  Using Nonlocal PP in Opt: NonLocalECP
   Number of samples loaded to each thread : 500 
  VMC Eavg = -9.2884e+00
  VMC Evar = 3.0658e-01
  Total weights = 5.1200e+05
  Execution time = 1.2708e+00
  </log>
</opt>
<opt stage="main" walkers="512000">
  <log>

*****************************************
Building overlap and Hamiltonian matrices
*****************************************

Among totally 82 optimized parameters, largest LM parameter change : 1.3140e-02 at parameter 19

******************************************************************************
Init Cost =  -8.8086e+00    New Cost =  -8.8090e+00  Delta Cost =  -3.5110e-04
******************************************************************************

The new set of parameters is valid. Updating the trial wave function!

*****************************************************************************
Applying the update for shift_i =   1.0000e-02     and shift_s =   3.9062e-03
*****************************************************************************
  Execution time = 6.3819e+00
  </log>
  <optVariables href="Se.log.s005.opt.xml">
   uu_0                 4.020699e-01 1 1  ON 0
   uu_1                 2.175653e-01 1 1  ON 1
   uu_2                 1.060671e-01 1 1  ON 2
   uu_3                 3.205553e-02 1 1  ON 3
   uu_4                -1.987122e-02 1 1  ON 4
   uu_5                -6.613896e-02 1 1  ON 5
   uu_6                -1.008652e-01 1 1  ON 6
   uu_7                -1.225409e-01 1 1  ON 7
   uu_8                -1.354327e-01 1 1  ON 8
   uu_9                -1.194325e-01 1 1  ON 9
   ud_0                 8.351479e-01 1 1  ON 10
   ud_1                 4.703353e-01 1 1  ON 11
   ud_2                 2.387990e-01 1 1  ON 12
   ud_3                 8.553050e-02 1 1  ON 13
   ud_4                -1.711624e-03 1 1  ON 14
   ud_5                -6.509051e-02 1 1  ON 15
   ud_6                -1.094397e-01 1 1  ON 16
   ud_7                -1.418648e-01 1 1  ON 17
   ud_8                -1.568992e-01 1 1  ON 18
   ud_9                -1.474066e-01 1 1  ON 19
  eSe_0                -1.042567e+00 1 1  ON 20
  eSe_1                -8.532960e-01 1 1  ON 21
  eSe_2                -6.614288e-01 1 1  ON 22
  eSe_3                -2.580203e-01 1 1  ON 23
  eSe_4                 1.773632e-01 1 1  ON 24
  eSe_5                 3.333441e-01 1 1  ON 25
  eSe_6                 5.573108e-01 1 1  ON 26
  eSe_7                 7.010695e-01 1 1  ON 27
  eSe_8                 6.761563e-01 1 1  ON 28
  eSe_9                 3.352760e-01 1 1  ON 29
 uuSe_0                -4.693478e-05 1 1  ON 30
 uuSe_1                 6.025533e-05 1 1  ON 31
 uuSe_2                 7.527215e-05 1 1  ON 32
 uuSe_3                 2.224481e-05 1 1  ON 33
 uuSe_4                -1.529088e-05 1 1  ON 34
 uuSe_5                -6.899451e-07 1 1  ON 35
 uuSe_6                 1.775603e-04 1 1  ON 36
 uuSe_7                 6.512126e-06 1 1  ON 37
 uuSe_8                 3.942294e-05 1 1  ON 38
 uuSe_9                -9.438820e-05 1 1  ON 39
uuSe_10                -2.231136e-06 1 1  ON 40
uuSe_11                -3.476200e-05 1 1  ON 41
uuSe_12                -1.078789e-05 1 1  ON 42
uuSe_13                -2.116307e-05 1 1  ON 43
uuSe_14                 3.620829e-06 1 1  ON 44
uuSe_15                 6.294044e-07 1 1  ON 45
uuSe_16                 1.252695e-04 1 1  ON 46
uuSe_17                -4.662334e-05 1 1  ON 47
uuSe_18                 2.304762e-05 1 1  ON 48
uuSe_19                 3.863522e-06 1 1  ON 49
uuSe_20                -1.261737e-05 1 1  ON 50
uuSe_21                -2.214022e-06 1 1  ON 51
uuSe_22                -3.236713e-07 1 1  ON 52
uuSe_23                 4.875921e-06 1 1  ON 53
uuSe_24                 1.237943e-08 1 1  ON 54
uuSe_25                 4.004205e-08 1 1  ON 55
 udSe_0                -6.973961e-05 1 1  ON 56
 udSe_1                 4.233910e-05 1 1  ON 57
 udSe_2                 6.573062e-05 1 1  ON 58
 udSe_3                 1.025059e-04 1 1  ON 59
 udSe_4                 8.863056e-06 1 1  ON 60
 udSe_5                -7.459942e-06 1 1  ON 61
 udSe_6                 2.270756e-04 1 1  ON 62
 udSe_7                -5.011032e-06 1 1  ON 63
 udSe_8                -5.163314e-05 1 1  ON 64
 udSe_9                -1.179099e-04 1 1  ON 65
udSe_10                 5.141089e-05 1 1  ON 66
udSe_11                -9.563931e-06 1 1  ON 67
udSe_12                 2.261232e-05 1 1  ON 68
udSe_13                -1.217842e-04 1 1  ON 69
udSe_14                -2.828545e-05 1 1  ON 70
udSe_15                 4.411654e-07 1 1  ON 71
udSe_16                 2.135554e-04 1 1  ON 72
udSe_17                -1.725314e-04 1 1  ON 73
udSe_18                 2.690651e-05 1 1  ON 74
udSe_19                -9.830389e-06 1 1  ON 75
udSe_20                 9.807437e-06 1 1  ON 76
udSe_21                 4.645761e-06 1 1  ON 77
udSe_22                 7.355076e-08 1 1  ON 78
udSe_23                -2.717205e-06 1 1  ON 79
udSe_24                -7.640678e-07 1 1  ON 80
udSe_25                 7.209822e-08 1 1  ON 81
  </optVariables>
   Restore the number of walkers to 1, removing 0 walkers.
</opt>
</optimization-report>
  QMC Execution time = 6.394 secs
  Reusing QMCFixedSampleLinearOptimize
 Using QMCCostFunction::QMCCostFunction

=========================================================
  Start QMCFixedSampleLinearOptimize
  File Root Se.log.s006 append = no 
=========================================================
  Skip QMCDriver::putQMCInfo 
  Resetting Properties of the walkers 1 x 13

=========================================================
  Start VMC
  File Root Se.log.s006 append = no 
=========================================================
Using existing walkers 
  Resetting Properties of the walkers 1 x 13

<vmc function="put">
  qmc_counter=5  my_counter=5
  time step      = 1.5000e-01
  blocks         = 500
  steps          = 1
  substeps       = 5
  current        = 0
  target samples = 5.1200e+05
  walkers/mpi    = 1

  stepsbetweensamples = 1
<parameter name="blocks" condition="int">500</parameter>
<parameter name="blocks_between_recompute" condition="int">0</parameter>
<parameter name="check_properties" condition="int">100</parameter>
<parameter name="checkproperties" condition="int">100</parameter>
<parameter name="current" condition="int">0</parameter>
<parameter name="dmcwalkersperthread" condition="real">5.0000e+02</parameter>
<parameter name="maxcpusecs" condition="real">3.6000e+05</parameter>
<parameter name="record_configs" condition="int">0</parameter>
<parameter name="record_walkers" condition="int">1</parameter>
<parameter name="recordconfigs" condition="int">0</parameter>
<parameter name="recordwalkers" condition="int">1</parameter>
<parameter name="rewind" condition="int">0</parameter>
<parameter name="samples" condition="real">5.1200e+05</parameter>
<parameter name="samplesperthread" condition="real">5.0000e+02</parameter>
<parameter name="steps" condition="int">1</parameter>
<parameter name="stepsbetweensamples" condition="int">1</parameter>
<parameter name="store_configs" condition="int">0</parameter>
<parameter name="storeconfigs" condition="int">0</parameter>
<parameter name="sub_steps" condition="int">5</parameter>
<parameter name="substeps" condition="int">5</parameter>
<parameter name="tau" condition="au">1.5000e-01</parameter>
<parameter name="time_step" condition="au">1.5000e-01</parameter>
<parameter name="timestep" condition="au">1.5000e-01</parameter>
<parameter name="use_drift" condition="string">no</parameter>
<parameter name="usedrift" condition="string">no</parameter>
<parameter name="walkers" condition="int">1</parameter>
<parameter name="warmup_steps" condition="int">0</parameter>
<parameter name="warmupsteps" condition="int">0</parameter>
  DumpConfig==false Nothing (configurations, state) will be saved.
  Walker Samples are dumped every 1 steps.
</vmc>
  Set drift_modifier UNR parameter a = 1.0000e+00
  EstimatorManagerBase::add replace LocalEnergy estimator.
  Set drift_modifier UNR parameter a = 1.0000e+00
  EstimatorManagerBase::add replace LocalEnergy estimator.
<optimization-report>
<vmc stage="main" blocks="500">
  Cannot make clones again. Use existing 1 clones
  Initial partition of walkers 0 1 
  Using Particle by Particle moves
  Walker moves without drift
  Total Sample Size   =512000
  Walker distribution on root = 0 1 
  Using Locality Approximation
===== Memory Usage after the buffer registration =====
Available memory on node 0, free + buffers : 52693 MB
Memory footprint by rank 0 on node 0       : 602 MB
==================================================
====================================================
  SimpleFixedNodeBranch::finalize after a VMC block
    QMC counter        = 6
    time step          = 0.15
    reference energy   = -9.29265
    reference variance = 0.0254226
====================================================
  Execution time = 3.8888e+00
</vmc>
<opt stage="setup">
  <log>
   Reading configurations from h5FileRoot Se.log.s006
  QMCCostFunction is created with 1 threads.
  Using Nonlocal PP in Opt: NonLocalECP
   Number of samples loaded to each thread : 500 
  VMC Eavg = -9.2878e+00
  VMC Evar = 2.6829e-01
  Total weights = 5.1200e+05
  Execution time = 1.2641e+00
  </log>
</opt>
<opt stage="main" walkers="512000">
  <log>

*****************************************
Building overlap and Hamiltonian matrices
*****************************************

Among totally 82 optimized parameters, largest LM parameter change : 1.7387e-02 at parameter 22

******************************************************************************
Init Cost =  -8.8100e+00    New Cost =  -8.8101e+00  Delta Cost =  -8.1883e-05
******************************************************************************

The new set of parameters is valid. Updating the trial wave function!

*****************************************************************************
Applying the update for shift_i =   1.0000e-02     and shift_s =   3.9062e-03
*****************************************************************************
  Execution time = 6.4089e+00
  </log>
  <optVariables href="Se.log.s006.opt.xml">
   uu_0                 3.976515e-01 1 1  ON 0
   uu_1                 2.170376e-01 1 1  ON 1
   uu_2                 1.063783e-01 1 1  ON 2
   uu_3                 3.210543e-02 1 1  ON 3
   uu_4                -1.895016e-02 1 1  ON 4
   uu_5                -6.474296e-02 1 1  ON 5
   uu_6                -9.851006e-02 1 1  ON 6
   uu_7                -1.194115e-01 1 1  ON 7
   uu_8                -1.299815e-01 1 1  ON 8
   uu_9                -1.179855e-01 1 1  ON 9
   ud_0                 8.366130e-01 1 1  ON 10
   ud_1                 4.739306e-01 1 1  ON 11
   ud_2                 2.442185e-01 1 1  ON 12
   ud_3                 9.311389e-02 1 1  ON 13
   ud_4                 6.785789e-03 1 1  ON 14
   ud_5                -5.743891e-02 1 1  ON 15
   ud_6                -1.037691e-01 1 1  ON 16
   ud_7                -1.395849e-01 1 1  ON 17
   ud_8                -1.556462e-01 1 1  ON 18
   ud_9                -1.498952e-01 1 1  ON 19
  eSe_0                -1.041240e+00 1 1  ON 20
  eSe_1                -8.680971e-01 1 1  ON 21
  eSe_2                -6.788155e-01 1 1  ON 22
  eSe_3                -2.650093e-01 1 1  ON 23
  eSe_4                 1.809241e-01 1 1  ON 24
  eSe_5                 3.430088e-01 1 1  ON 25
  eSe_6                 5.596995e-01 1 1  ON 26
  eSe_7                 6.996681e-01 1 1  ON 27
  eSe_8                 6.807996e-01 1 1  ON 28
  eSe_9                 3.481801e-01 1 1  ON 29
 uuSe_0                -4.283400e-05 1 1  ON 30
 uuSe_1                 5.975073e-05 1 1  ON 31
 uuSe_2                 7.908791e-05 1 1  ON 32
 uuSe_3                 1.966416e-05 1 1  ON 33
 uuSe_4                -1.590790e-05 1 1  ON 34
 uuSe_5                 1.639118e-07 1 1  ON 35
 uuSe_6                 1.721855e-04 1 1  ON 36
 uuSe_7                 1.603289e-05 1 1  ON 37
 uuSe_8                 4.836591e-05 1 1  ON 38
 uuSe_9                -1.001631e-04 1 1  ON 39
uuSe_10                -1.068911e-06 1 1  ON 40
uuSe_11                -4.637608e-05 1 1  ON 41
uuSe_12                -1.207602e-05 1 1  ON 42
uuSe_13                -1.357588e-05 1 1  ON 43
uuSe_14                 5.946600e-06 1 1  ON 44
uuSe_15                 5.370999e-07 1 1  ON 45
uuSe_16                 1.294673e-04 1 1  ON 46
uuSe_17                -4.326510e-05 1 1  ON 47
uuSe_18                 2.999152e-05 1 1  ON 48
uuSe_19                 3.431157e-06 1 1  ON 49
uuSe_20                -1.635274e-05 1 1  ON 50
uuSe_21                -3.369305e-06 1 1  ON 51
uuSe_22                -1.617539e-07 1 1  ON 52
uuSe_23                 5.727370e-06 1 1  ON 53
uuSe_24                 1.876907e-07 1 1  ON 54
uuSe_25                 4.313547e-09 1 1  ON 55
 udSe_0                -6.460456e-05 1 1  ON 56
 udSe_1                 3.053893e-05 1 1  ON 57
 udSe_2                 5.455213e-05 1 1  ON 58
 udSe_3                 1.004928e-04 1 1  ON 59
 udSe_4                 1.015484e-05 1 1  ON 60
 udSe_5                -6.343745e-06 1 1  ON 61
 udSe_6                 1.957247e-04 1 1  ON 62
 udSe_7                 2.655792e-06 1 1  ON 63
 udSe_8                -5.597249e-05 1 1  ON 64
 udSe_9                -1.006218e-04 1 1  ON 65
udSe_10                 5.078216e-05 1 1  ON 66
udSe_11                -5.747517e-06 1 1  ON 67
udSe_12                 2.325522e-05 1 1  ON 68
udSe_13                -1.191660e-04 1 1  ON 69
udSe_14                -2.765497e-05 1 1  ON 70
udSe_15                 3.345107e-07 1 1  ON 71
udSe_16                 1.914370e-04 1 1  ON 72
udSe_17                -1.624488e-04 1 1  ON 73
udSe_18                 2.202967e-05 1 1  ON 74
udSe_19                -9.569361e-06 1 1  ON 75
udSe_20                 1.209481e-05 1 1  ON 76
udSe_21                 4.947522e-06 1 1  ON 77
udSe_22                 3.142196e-08 1 1  ON 78
udSe_23                -3.130182e-06 1 1  ON 79
udSe_24                -8.178143e-07 1 1  ON 80
udSe_25                 8.691663e-08 1 1  ON 81
  </optVariables>
   Restore the number of walkers to 1, removing 0 walkers.
</opt>
</optimization-report>
  QMC Execution time = 6.42 secs
  Reusing QMCFixedSampleLinearOptimize
 Using QMCCostFunction::QMCCostFunction

=========================================================
  Start QMCFixedSampleLinearOptimize
  File Root Se.log.s007 append = no 
=========================================================
  Skip QMCDriver::putQMCInfo 
  Resetting Properties of the walkers 1 x 13

=========================================================
  Start VMC
  File Root Se.log.s007 append = no 
=========================================================
Using existing walkers 
  Resetting Properties of the walkers 1 x 13

<vmc function="put">
  qmc_counter=6  my_counter=6
  time step      = 1.5000e-01
  blocks         = 500
  steps          = 1
  substeps       = 5
  current        = 0
  target samples = 5.1200e+05
  walkers/mpi    = 1

  stepsbetweensamples = 1
<parameter name="blocks" condition="int">500</parameter>
<parameter name="blocks_between_recompute" condition="int">0</parameter>
<parameter name="check_properties" condition="int">100</parameter>
<parameter name="checkproperties" condition="int">100</parameter>
<parameter name="current" condition="int">0</parameter>
<parameter name="dmcwalkersperthread" condition="real">5.0000e+02</parameter>
<parameter name="maxcpusecs" condition="real">3.6000e+05</parameter>
<parameter name="record_configs" condition="int">0</parameter>
<parameter name="record_walkers" condition="int">1</parameter>
<parameter name="recordconfigs" condition="int">0</parameter>
<parameter name="recordwalkers" condition="int">1</parameter>
<parameter name="rewind" condition="int">0</parameter>
<parameter name="samples" condition="real">5.1200e+05</parameter>
<parameter name="samplesperthread" condition="real">5.0000e+02</parameter>
<parameter name="steps" condition="int">1</parameter>
<parameter name="stepsbetweensamples" condition="int">1</parameter>
<parameter name="store_configs" condition="int">0</parameter>
<parameter name="storeconfigs" condition="int">0</parameter>
<parameter name="sub_steps" condition="int">5</parameter>
<parameter name="substeps" condition="int">5</parameter>
<parameter name="tau" condition="au">1.5000e-01</parameter>
<parameter name="time_step" condition="au">1.5000e-01</parameter>
<parameter name="timestep" condition="au">1.5000e-01</parameter>
<parameter name="use_drift" condition="string">no</parameter>
<parameter name="usedrift" condition="string">no</parameter>
<parameter name="walkers" condition="int">1</parameter>
<parameter name="warmup_steps" condition="int">0</parameter>
<parameter name="warmupsteps" condition="int">0</parameter>
  DumpConfig==false Nothing (configurations, state) will be saved.
  Walker Samples are dumped every 1 steps.
</vmc>
  Set drift_modifier UNR parameter a = 1.0000e+00
  EstimatorManagerBase::add replace LocalEnergy estimator.
  Set drift_modifier UNR parameter a = 1.0000e+00
  EstimatorManagerBase::add replace LocalEnergy estimator.
<optimization-report>
<vmc stage="main" blocks="500">
  Cannot make clones again. Use existing 1 clones
  Initial partition of walkers 0 1 
  Using Particle by Particle moves
  Walker moves without drift
  Total Sample Size   =512000
  Walker distribution on root = 0 1 
  Using Locality Approximation
===== Memory Usage after the buffer registration =====
Available memory on node 0, free + buffers : 52688 MB
Memory footprint by rank 0 on node 0       : 606 MB
==================================================
====================================================
  SimpleFixedNodeBranch::finalize after a VMC block
    QMC counter        = 7
    time step          = 0.15
    reference energy   = -9.30561
    reference variance = 0.0333667
====================================================
  Execution time = 3.9028e+00
</vmc>
<opt stage="setup">
  <log>
   Reading configurations from h5FileRoot Se.log.s007
  QMCCostFunction is created with 1 threads.
  Using Nonlocal PP in Opt: NonLocalECP
   Number of samples loaded to each thread : 500 
  VMC Eavg = -9.2890e+00
  VMC Evar = 2.7642e-01
  Total weights = 5.1200e+05
  Execution time = 1.2702e+00
  </log>
</opt>
<opt stage="main" walkers="512000">
  <log>

*****************************************
Building overlap and Hamiltonian matrices
*****************************************

Among totally 82 optimized parameters, largest LM parameter change : 1.1047e-02 at parameter 29

******************************************************************************
Init Cost =  -8.8107e+00    New Cost =  -8.8105e+00  Delta Cost =   1.7255e-04
******************************************************************************

The new set of parameters is valid. Updating the trial wave function!

*****************************************************************************
Applying the update for shift_i =   1.0000e-02     and shift_s =   3.9062e-03
*****************************************************************************
  Execution time = 6.4422e+00
  </log>
  <optVariables href="Se.log.s007.opt.xml">
   uu_0                 3.943799e-01 1 1  ON 0
   uu_1                 2.128159e-01 1 1  ON 1
   uu_2                 1.017132e-01 1 1  ON 2
   uu_3                 2.954257e-02 1 1  ON 3
   uu_4                -1.881146e-02 1 1  ON 4
   uu_5                -6.130520e-02 1 1  ON 5
   uu_6                -9.487800e-02 1 1  ON 6
   uu_7                -1.160819e-01 1 1  ON 7
   uu_8                -1.233509e-01 1 1  ON 8
   uu_9                -1.121523e-01 1 1  ON 9
   ud_0                 8.454957e-01 1 1  ON 10
   ud_1                 4.838224e-01 1 1  ON 11
   ud_2                 2.518724e-01 1 1  ON 12
   ud_3                 9.883110e-02 1 1  ON 13
   ud_4                 1.179039e-02 1 1  ON 14
   ud_5                -5.326220e-02 1 1  ON 15
   ud_6                -9.881324e-02 1 1  ON 16
   ud_7                -1.365077e-01 1 1  ON 17
   ud_8                -1.559941e-01 1 1  ON 18
   ud_9                -1.568138e-01 1 1  ON 19
  eSe_0                -1.051599e+00 1 1  ON 20
  eSe_1                -8.741286e-01 1 1  ON 21
  eSe_2                -6.840431e-01 1 1  ON 22
  eSe_3                -2.669521e-01 1 1  ON 23
  eSe_4                 1.822850e-01 1 1  ON 24
  eSe_5                 3.493548e-01 1 1  ON 25
  eSe_6                 5.595424e-01 1 1  ON 26
  eSe_7                 6.942539e-01 1 1  ON 27
  eSe_8                 6.844874e-01 1 1  ON 28
  eSe_9                 3.592269e-01 1 1  ON 29
 uuSe_0                -4.113288e-05 1 1  ON 30
 uuSe_1                 4.736400e-05 1 1  ON 31
 uuSe_2                 6.915439e-05 1 1  ON 32
 uuSe_3                 2.548984e-05 1 1  ON 33
 uuSe_4                -1.316646e-05 1 1  ON 34
 uuSe_5                 6.945666e-07 1 1  ON 35
 uuSe_6                 1.506198e-04 1 1  ON 36
 uuSe_7                 1.568472e-05 1 1  ON 37
 uuSe_8                 3.864614e-05 1 1  ON 38
 uuSe_9                -8.391797e-05 1 1  ON 39
uuSe_10                 3.073609e-06 1 1  ON 40
uuSe_11                -4.159489e-05 1 1  ON 41
uuSe_12                -9.959677e-06 1 1  ON 42
uuSe_13                -2.122170e-05 1 1  ON 43
uuSe_14                 4.604628e-06 1 1  ON 44
uuSe_15                 4.599891e-07 1 1  ON 45
uuSe_16                 1.152602e-04 1 1  ON 46
uuSe_17                -4.718371e-05 1 1  ON 47
uuSe_18                 2.974436e-05 1 1  ON 48
uuSe_19                 2.786255e-06 1 1  ON 49
uuSe_20                -1.223119e-05 1 1  ON 50
uuSe_21                -3.575439e-06 1 1  ON 51
uuSe_22                -6.331580e-08 1 1  ON 52
uuSe_23                 5.078918e-06 1 1  ON 53
uuSe_24                 2.890744e-07 1 1  ON 54
uuSe_25                -2.161159e-08 1 1  ON 55
 udSe_0                -6.588245e-05 1 1  ON 56
 udSe_1                 5.483979e-05 1 1  ON 57
 udSe_2                 7.649547e-05 1 1  ON 58
 udSe_3                 1.021158e-04 1 1  ON 59
 udSe_4                 6.865117e-06 1 1  ON 60
 udSe_5                -7.182489e-06 1 1  ON 61
[...]
   uu_2                 1.132999e-01 1 1  ON 2
   uu_3                 4.085079e-02 1 1  ON 3
   uu_4                -8.031466e-03 1 1  ON 4
   uu_5                -5.241857e-02 1 1  ON 5
   uu_6                -8.775484e-02 1 1  ON 6
   uu_7                -1.109456e-01 1 1  ON 7
   uu_8                -1.239362e-01 1 1  ON 8
   uu_9                -1.058487e-01 1 1  ON 9
   ud_0                 9.032545e-01 1 1  ON 10
   ud_1                 5.375244e-01 1 1  ON 11
   ud_2                 3.028715e-01 1 1  ON 12
   ud_3                 1.459972e-01 1 1  ON 13
   ud_4                 5.691477e-02 1 1  ON 14
   ud_5                -7.244166e-03 1 1  ON 15
   ud_6                -5.338725e-02 1 1  ON 16
   ud_7                -8.663688e-02 1 1  ON 17
   ud_8                -1.046098e-01 1 1  ON 18
   ud_9                -1.121874e-01 1 1  ON 19
  eSe_0                -1.127371e+00 1 1  ON 20
  eSe_1                -9.390872e-01 1 1  ON 21
  eSe_2                -7.436259e-01 1 1  ON 22
  eSe_3                -3.234885e-01 1 1  ON 23
  eSe_4                 1.417423e-01 1 1  ON 24
  eSe_5                 3.400125e-01 1 1  ON 25
  eSe_6                 5.676231e-01 1 1  ON 26
  eSe_7                 7.218631e-01 1 1  ON 27
  eSe_8                 7.295890e-01 1 1  ON 28
  eSe_9                 4.887293e-01 1 1  ON 29
 uuSe_0                -5.122962e-05 1 1  ON 30
 uuSe_1                 3.862568e-05 1 1  ON 31
 uuSe_2                 7.869886e-05 1 1  ON 32
 uuSe_3                 3.571194e-05 1 1  ON 33
 uuSe_4                -1.433075e-05 1 1  ON 34
 uuSe_5                 1.508928e-06 1 1  ON 35
 uuSe_6                 1.504251e-04 1 1  ON 36
 uuSe_7                 2.973206e-05 1 1  ON 37
 uuSe_8                 4.493044e-05 1 1  ON 38
 uuSe_9                -7.585206e-05 1 1  ON 39
uuSe_10                 8.197600e-06 1 1  ON 40
uuSe_11                -5.489651e-05 1 1  ON 41
uuSe_12                -1.166817e-05 1 1  ON 42
uuSe_13                -3.723431e-05 1 1  ON 43
uuSe_14                 5.546778e-06 1 1  ON 44
uuSe_15                 5.805485e-07 1 1  ON 45
uuSe_16                 1.176048e-04 1 1  ON 46
uuSe_17                -6.371346e-05 1 1  ON 47
uuSe_18                 4.101897e-05 1 1  ON 48
uuSe_19                 3.091652e-06 1 1  ON 49
uuSe_20                -6.501657e-06 1 1  ON 50
uuSe_21                -5.052560e-06 1 1  ON 51
uuSe_22                -6.514703e-08 1 1  ON 52
uuSe_23                 3.528948e-06 1 1  ON 53
uuSe_24                 5.584278e-07 1 1  ON 54
uuSe_25                -2.689451e-08 1 1  ON 55
 udSe_0                -7.621563e-05 1 1  ON 56
 udSe_1                 2.268639e-05 1 1  ON 57
 udSe_2                 7.063446e-05 1 1  ON 58
 udSe_3                 1.136158e-04 1 1  ON 59
 udSe_4                 9.660994e-06 1 1  ON 60
 udSe_5                -5.527405e-06 1 1  ON 61
 udSe_6                 2.082003e-04 1 1  ON 62
 udSe_7                 8.646947e-06 1 1  ON 63
 udSe_8                -4.905752e-05 1 1  ON 64
 udSe_9                -1.032032e-04 1 1  ON 65
udSe_10                 6.002945e-05 1 1  ON 66
udSe_11                -2.011706e-05 1 1  ON 67
udSe_12                 2.218075e-05 1 1  ON 68
udSe_13                -1.331818e-04 1 1  ON 69
udSe_14                -2.760599e-05 1 1  ON 70
udSe_15                 4.694984e-07 1 1  ON 71
udSe_16                 2.033720e-04 1 1  ON 72
udSe_17                -1.823673e-04 1 1  ON 73
udSe_18                 3.445319e-05 1 1  ON 74
udSe_19                -9.720363e-06 1 1  ON 75
udSe_20                 1.506967e-05 1 1  ON 76
udSe_21                 3.640679e-06 1 1  ON 77
udSe_22                 6.180944e-08 1 1  ON 78
udSe_23                -4.043488e-06 1 1  ON 79
udSe_24                -5.990464e-07 1 1  ON 80
udSe_25                 7.769502e-08 1 1  ON 81
  </optVariables>
   Restore the number of walkers to 1, removing 0 walkers.
</opt>
</optimization-report>
  QMC Execution time = 6.394 secs

=========================================================
  Start VMC
  File Root Se.log.s021 append = no 
=========================================================
  Using the current 1 walkers.
  Total number of walkers: 1024
  Total weight: 1024
  Resetting Properties of the walkers 1 x 13

<vmc function="put">
  qmc_counter=0  my_counter=0
  time step      = 0.15
  blocks         = 200
  steps          = 1
  substeps       = 30
  current        = 0
  target samples = 4096
  walkers/mpi    = 1

  stepsbetweensamples = 50
<parameter name="blocks" condition="int">200</parameter>
<parameter name="blocks_between_recompute" condition="int">0</parameter>
<parameter name="check_properties" condition="int">100</parameter>
<parameter name="checkproperties" condition="int">100</parameter>
<parameter name="current" condition="int">0</parameter>
<parameter name="dmcwalkersperthread" condition="real">4</parameter>
<parameter name="maxcpusecs" condition="real">3.6e+05</parameter>
<parameter name="record_configs" condition="int">0</parameter>
<parameter name="record_walkers" condition="int">50</parameter>
<parameter name="recordconfigs" condition="int">0</parameter>
<parameter name="recordwalkers" condition="int">50</parameter>
<parameter name="rewind" condition="int">0</parameter>
<parameter name="samples" condition="real">4096</parameter>
<parameter name="samplesperthread" condition="real">4</parameter>
<parameter name="steps" condition="int">1</parameter>
<parameter name="stepsbetweensamples" condition="int">50</parameter>
<parameter name="store_configs" condition="int">0</parameter>
<parameter name="storeconfigs" condition="int">0</parameter>
<parameter name="sub_steps" condition="int">30</parameter>
<parameter name="substeps" condition="int">30</parameter>
<parameter name="tau" condition="au">0.15</parameter>
<parameter name="time_step" condition="au">0.15</parameter>
<parameter name="timestep" condition="au">0.15</parameter>
<parameter name="use_drift" condition="string">no</parameter>
<parameter name="usedrift" condition="string">no</parameter>
<parameter name="walkers" condition="int">1</parameter>
<parameter name="warmup_steps" condition="int">100</parameter>
<parameter name="warmupsteps" condition="int">100</parameter>
  DumpConfig==true Configurations are dumped to config.h5 with a period of 200 blocks
  Walker Samples are dumped every 50 steps.
</vmc>
  Set drift_modifier UNR parameter a = 1
  EstimatorManagerBase::add replace LocalEnergy estimator.
  Cannot make clones again. Use existing 1 clones
  Initial partition of walkers 0 1 

  Using Particle by Particle moves
  Walker moves without drift
  Total Sample Size   =4096
  Walker distribution on root = 0 1 
  Using Locality Approximation
===== Memory Usage after the buffer registration =====
Available memory on node 0, free + buffers : 52627 MB
Memory footprint by rank 0 on node 0       : 650 MB
==================================================
  Anonymous Buffer size per walker : 2336 Bytes.
MEMORY increase 0 MB VMC::resetRun
  samples are written to the config.h5
====================================================
  SimpleFixedNodeBranch::finalize after a VMC block
    QMC counter        = 21
    time step          = 0.15
    reference energy   = -9.29488
    reference variance = 0.0440654
====================================================
  QMC Execution time = 3.172 secs

=========================================================
  Start DMC
  File Root Se.log.s022 append = no 
=========================================================
Using existing walkers 
  Resetting Properties of the walkers 1 x 13
  Set drift_modifier UNR parameter a = 1
  EstimatorManagerBase::add replace LocalEnergy estimator.
  Cannot make clones again. Use existing 1 clones
  Total number of walkers: 4096
  Total weight: 4096
  Creating WalkerController: target  number of walkers = 4096
  Using WalkerControlMPI for dynamic population control.
  START ALL OVER 
  WalkerControlBase parameters 
    maxCopy = 2
    Max Walkers per MPI rank 9
    Min Walkers per MPI rank 1
    Using non-blocking send/recv
  QMC counter      = 22
  time step        = 0.02
  effective time step = 0.02
  trial energy     = -9.295
  reference energy = -9.295
  Feedback = 1
  reference variance = 0.04407
  target walkers = 4096
  branching cutoff scheme classic
  branch cutoff = 50 75
  Max and minimum walkers per node= 9 1
  QMC Status (BranchMode) = 0000001101
  Initial partition of walkers on a node: 0 4 
  Updates by particle-by-particle moves
  DMC moves are rejected when a node crossing is detected
  Using Non-local T-moves v1, M. Casula et al., JCP 132, 154113 (2010)
===== Memory Usage after the buffer registration =====
Available memory on node 0, free + buffers : 52560 MB
Memory footprint by rank 0 on node 0       : 663 MB
==================================================
SimpleFixedNodeBranch::checkParameters 
  Average Energy of a population  = -9.28846
  Energy Variance = 0.052798

  Fluctuating population
  Persistent walkers are killed after 1 MC sweeps
  BranchInterval = 1
  Steps per block = 50
  Number of blocks = 150

  DMC Engine Initialization = 0.03557 secs

 Warmup is completed after 200

  TauEff     = 0.01988
 TauEff/Tau = 0.9938
  Etrial     = -9.319
 Running average of energy = -9.296
                  Variance = 0.03841
branch cutoff = 10 15
====================================================
  SimpleFixedNodeBranch::finalize after a DMC block
    QMC counter                   = 22
    time step                     = 0.02
    effective time step           = 0.0198761
    trial energy                  = -9.29516
    reference energy              = -9.29638
    reference variance            = 0.03841
    target walkers                = 4096
    branch cutoff                 = 10 15
    Max and minimum walkers per node= 9 1
    Feedback                      = 1
    QMC Status (BranchMode)       = 0000001111
====================================================
  QMC Execution time = 237.3 secs
  Reusing DMC
BRANCH resetRun
 SimpleFixedNodeBranch::resetRun detected changes in <parameter>'s 
 BranchMode : 0000001111 0000001111
  WalkerControlBase parameters 
    maxCopy = 2
    Max Walkers per MPI rank 9
    Min Walkers per MPI rank 1
    Using non-blocking send/recv
 iParam (old):                  0                 1                22              4096                 9                 1                 1                 0
 iParam (new):                100                 1                22              4096                 9                 1                 1                 0
 vParam (old):               0.02     0.01987605788      -9.295160286      -9.296381734      -9.295947882                15                10               0.2     0.03841002542      -67872.88261              7301                 1                10                 1                 1                 1                 1
 vParam (new):               0.01     0.01987605788      -9.295160286      -9.296381734      -9.295947882                15                10               0.2     0.03841002542      -67872.88261              7301                 1                10                 1                 1                 1                 1

 Using branching cutoff scheme classic
SimpleFixedNodeBranch::checkParameters 
  Average Energy of a population  = -9.29612
  Energy Variance = 0.0415617

  Using Non-local T-moves v1, M. Casula et al., JCP 132, 154113 (2010)
===== Memory Usage after the buffer registration =====
Available memory on node 0, free + buffers : 52546 MB
Memory footprint by rank 0 on node 0       : 667 MB
==================================================

=========================================================
  Start DMC
  File Root Se.log.s023 append = no 
=========================================================
Using existing walkers 
  Resetting Properties of the walkers 1 x 13
  Set drift_modifier UNR parameter a = 1
  EstimatorManagerBase::add replace LocalEnergy estimator.
  Cannot make clones again. Use existing 1 clones
SimpleFixedNodeBranch::checkParameters 
  Average Energy of a population  = -9.29578
  Energy Variance = 0.0406688

  Fluctuating population
  Persistent walkers are killed after 1 MC sweeps
  BranchInterval = 1
  Steps per block = 100
  Number of blocks = 200

  DMC Engine Initialization = 0.0003190040588 secs

 Warmup is completed after 100

  TauEff     = 0.009977757346
 TauEff/Tau = 0.9977757346
  Etrial     = -9.408859091
 Running average of energy = -9.295799689
                  Variance = 0.03899525294
branch cutoff = 10 15
====================================================
  SimpleFixedNodeBranch::finalize after a DMC block
    QMC counter                   = 23
    time step                     = 0.01
    effective time step           = 0.00997703
    trial energy                  = -9.29667
    reference energy              = -9.29667
    reference variance            = 0.0389953
    target walkers                = 4096
    branch cutoff                 = 10 15
    Max and minimum walkers per node= 9 1
    Feedback                      = 1
    QMC Status (BranchMode)       = 0000001111
====================================================
  QMC Execution time = 632.3 secs
  Reusing DMC
BRANCH resetRun
 SimpleFixedNodeBranch::resetRun detected changes in <parameter>'s 
 BranchMode : 0000001111 0000001111
  WalkerControlBase parameters 
    maxCopy = 2
    Max Walkers per MPI rank 9
    Min Walkers per MPI rank 1
    Using non-blocking send/recv
 iParam (old):                  0                 1                23              4096                 9                 1                 1                 0
 iParam (new):                200                 1                23              4096                 9                 1                 1                 0
 vParam (old):               0.01    0.009977028027      -9.296671938      -9.296671938      -9.297879952                15                10               0.2     0.03899525294      -185013.0694             19901                 1                10                 1                 1                 1                 1
 vParam (new):              0.005    0.009977028027      -9.296671938      -9.296671938      -9.297879952                15                10               0.2     0.03899525294      -185013.0694             19901                 1                10                 1                 1                 1                 1

 Using branching cutoff scheme classic
SimpleFixedNodeBranch::checkParameters 
  Average Energy of a population  = -9.29798
  Energy Variance = 0.037177

  Using Non-local T-moves v1, M. Casula et al., JCP 132, 154113 (2010)
===== Memory Usage after the buffer registration =====
Available memory on node 0, free + buffers : 52529 MB
Memory footprint by rank 0 on node 0       : 670 MB
==================================================

=========================================================
  Start DMC
  File Root Se.log.s024 append = no 
=========================================================
Using existing walkers 
  Resetting Properties of the walkers 1 x 13
  Set drift_modifier UNR parameter a = 1
  EstimatorManagerBase::add replace LocalEnergy estimator.
  Cannot make clones again. Use existing 1 clones
SimpleFixedNodeBranch::checkParameters 
  Average Energy of a population  = -9.29797
  Energy Variance = 0.0376364

  Fluctuating population
  Persistent walkers are killed after 1 MC sweeps
  BranchInterval = 1
  Steps per block = 200
  Number of blocks = 250

  DMC Engine Initialization = 0.0003390312195 secs

 Warmup is completed after 200

  TauEff     = 0.004996004948
 TauEff/Tau = 0.9992009896
  Etrial     = -9.298758602
 Running average of energy = -9.296625413
                  Variance = 0.03820070371
branch cutoff = 10 15
====================================================
  SimpleFixedNodeBranch::finalize after a DMC block
    QMC counter                   = 24
    time step                     = 0.005
    effective time step           = 0.00499581
    trial energy                  = -9.30453
    reference energy              = -9.29651
    reference variance            = 0.0382007
    target walkers                = 4096
    branch cutoff                 = 10 15
    Max and minimum walkers per node= 9 1
    Feedback                      = 1
    QMC Status (BranchMode)       = 0000001111
====================================================
  QMC Execution time = 1575 secs
  Reusing DMC
BRANCH resetRun
 SimpleFixedNodeBranch::resetRun detected changes in <parameter>'s 
 BranchMode : 0000001111 0000001111
  WalkerControlBase parameters 
    maxCopy = 2
    Max Walkers per MPI rank 9
    Min Walkers per MPI rank 1
    Using non-blocking send/recv
 iParam (old):                  0                 1                24              4096                 9                 1                 1                 0
 iParam (new):                400                 1                24              4096                 9                 1                 1                 0
 vParam (old):              0.005    0.004995806129      -9.304531823      -9.296507464      -9.295873006                15                10               0.2     0.03820070371      -462975.3676             49801                 1                10                 1                 1                 1                 1
 vParam (new):             0.0025    0.004995806129      -9.304531823      -9.296507464      -9.295873006                15                10               0.2     0.03820070371      -462975.3676             49801                 1                10                 1                 1                 1                 1

 Using branching cutoff scheme classic
SimpleFixedNodeBranch::checkParameters 
  Average Energy of a population  = -9.29605
  Energy Variance = 0.0376723

  Using Non-local T-moves v1, M. Casula et al., JCP 132, 154113 (2010)
===== Memory Usage after the buffer registration =====
Available memory on node 0, free + buffers : 52491 MB
Memory footprint by rank 0 on node 0       : 674 MB
==================================================

=========================================================
  Start DMC
  File Root Se.log.s025 append = no 
=========================================================
Using existing walkers 
  Resetting Properties of the walkers 1 x 13
  Set drift_modifier UNR parameter a = 1
  EstimatorManagerBase::add replace LocalEnergy estimator.
  Cannot make clones again. Use existing 1 clones
SimpleFixedNodeBranch::checkParameters 
  Average Energy of a population  = -9.29568
  Energy Variance = 0.0364119

  Fluctuating population
  Persistent walkers are killed after 1 MC sweeps
  BranchInterval = 1
  Steps per block = 400
  Number of blocks = 300

  DMC Engine Initialization = 0.0003609657288 secs

 Warmup is completed after 400

  TauEff     = 0.002499239336
 TauEff/Tau = 0.9996957344
  Etrial     = -9.488920063
 Running average of energy = -9.29750477
                  Variance = 0.03886144152
branch cutoff = 10 15
====================================================
  SimpleFixedNodeBranch::finalize after a DMC block
    QMC counter                   = 25
    time step                     = 0.0025
    effective time step           = 0.00249924
    trial energy                  = -9.29214
    reference energy              = -9.29654
    reference variance            = 0.0388614
    target walkers                = 4096
    branch cutoff                 = 10 15
    Max and minimum walkers per node= 9 1
    Feedback                      = 1
    QMC Status (BranchMode)       = 0000001111
====================================================
  QMC Execution time = 3784 secs
  Total Execution time = 6362 secs

=========================================================
  A new xml input file : Se.log.s025.cont.xml
TACC:  Shutdown complete. Exiting. 
