----- GAMESS execution script 'rungms' -----
This job is running on host login3.stampede2.tacc.utexas.edu
under operating system Linux at Wed Jan 16 15:38:55 CST 2019
Available scratch disk space (Kbyte units) at beginning of the job is
Filesystem     1K-blocks    Used Available Use% Mounted on
/dev/md2        73411824 1786292  67889676   3% /tmp
GAMESS temporary binary files will be written to /tmp
GAMESS supplementary output files will be written to /work/04843/aannabe/stampede2/docs/accurate/sref_qmcpack/He_core/Al/TZ
Copying input file Al.inp to your run's scratch directory...

 Distributed Data Interface kickoff program.
 Initiating 1 compute processes on 1 nodes to run the following command:
 /work/04843/aannabe/stampede2/codes/gamess-mcb/gamess/gamess.00.x Al 

          ******************************************************
          *         GAMESS VERSION =  1 MAY 2013 (R1)          *
          *             FROM IOWA STATE UNIVERSITY             *
          * M.W.SCHMIDT, K.K.BALDRIDGE, J.A.BOATZ, S.T.ELBERT, *
          *   M.S.GORDON, J.H.JENSEN, S.KOSEKI, N.MATSUNAGA,   *
          *          K.A.NGUYEN, S.J.SU, T.L.WINDUS,           *
          *       TOGETHER WITH M.DUPUIS, J.A.MONTGOMERY       *
          *         J.COMPUT.CHEM.  14, 1347-1363(1993)        *
          **************** 64 BIT INTEL VERSION ****************

  SINCE 1993, STUDENTS AND POSTDOCS WORKING AT IOWA STATE UNIVERSITY
  AND ALSO IN THEIR VARIOUS JOBS AFTER LEAVING ISU HAVE MADE IMPORTANT
  CONTRIBUTIONS TO THE CODE:
     IVANA ADAMOVIC, CHRISTINE AIKENS, YURI ALEXEEV, POOJA ARORA,
     ANDREY ASADCHEV, ROB BELL, PRADIPTA BANDYOPADHYAY, JONATHAN BENTZ,
     BRETT BODE, GALINA CHABAN, WEI CHEN, CHEOL HO CHOI, PAUL DAY,
     ALBERT DEFUSCO, TIM DUDLEY, DMITRI FEDOROV, GRAHAM FLETCHER,
     MARK FREITAG, KURT GLAESEMANN, DAN KEMP, GRANT MERRILL,
     NORIYUKI MINEZAWA, JONATHAN MULLIN, TAKESHI NAGATA,
     SEAN NEDD, HEATHER NETZLOFF, BOSILJKA NJEGIC, RYAN OLSON, MIKE PAK,
     JIM SHOEMAKER, LYUDMILA SLIPCHENKO, SAROM SOK, JIE SONG,
     TETSUYA TAKETSUGU, SIMON WEBB, SOOHAENG YOO, FEDERICO ZAHARIEV

  ADDITIONAL CODE HAS BEEN PROVIDED BY COLLABORATORS IN OTHER GROUPS:
     IOWA STATE UNIVERSITY:
          JOE IVANIC, LAIMUTIS BYTAUTAS, KLAUS RUEDENBERG
     UNIVERSITY OF TOKYO: KIMIHIKO HIRAO, TAKAHITO NAKAJIMA,
          TAKAO TSUNEDA, MUNEAKI KAMIYA, SUSUMU YANAGISAWA,
          KIYOSHI YAGI, MAHITO CHIBA, SEIKEN TOKURA, NAOAKI KAWAKAMI
     UNIVERSITY OF AARHUS: FRANK JENSEN
     UNIVERSITY OF IOWA: VISVALDAS KAIRYS, HUI LI
     NATIONAL INST. OF STANDARDS AND TECHNOLOGY: WALT STEVENS, DAVID GARMER
     UNIVERSITY OF PISA: BENEDETTA MENNUCCI, JACOPO TOMASI
     UNIVERSITY OF MEMPHIS: HENRY KURTZ, PRAKASHAN KORAMBATH
     UNIVERSITY OF ALBERTA: TOBY ZENG, MARIUSZ KLOBUKOWSKI
     UNIVERSITY OF NEW ENGLAND: MARK SPACKMAN
     MIE UNIVERSITY: HIROAKI UMEDA
     MICHIGAN STATE UNIVERSITY:
          KAROL KOWALSKI, MARTA WLOCH, JEFFREY GOUR, JESSE LUTZ,
          WEI LI, PIOTR PIECUCH
     UNIVERSITY OF SILESIA: MONIKA MUSIAL, STANISLAW KUCHARSKI
     FACULTES UNIVERSITAIRES NOTRE-DAME DE LA PAIX:
          OLIVIER QUINET, BENOIT CHAMPAGNE
     UNIVERSITY OF CALIFORNIA - SANTA BARBARA: BERNARD KIRTMAN
     INSTITUTE FOR MOLECULAR SCIENCE:
          KAZUYA ISHIMURA, MICHIO KATOUDA, AND SHIGERU NAGASE
     UNIVERSITY OF NOTRE DAME: DAN CHIPMAN
     KYUSHU UNIVERSITY:
          HARUYUKI NAKANO,
          FENG LONG GU, JACEK KORCHOWIEC, MARCIN MAKOWSKI, AND YURIKO AOKI,
          HIROTOSHI MORI AND EISAKU MIYOSHI
     PENNSYLVANIA STATE UNIVERSITY:
          TZVETELIN IORDANOV, CHET SWALINA, JONATHAN SKONE,
          SHARON HAMMES-SCHIFFER
     WASEDA UNIVERSITY:
          MASATO KOBAYASHI, TOMOKO AKAMA, TSUGUKI TOUMA,
          TAKESHI YOSHIKAWA, YASUHIRO IKABATA, HIROMI NAKAI
     NANJING UNIVERSITY: SHUHUA LI
     UNIVERSITY OF NEBRASKA:
          PEIFENG SU, DEJUN SI, NANDUN THELLAMUREGE, YALI WANG, HUI LI
     UNIVERSITY OF ZURICH:
          ROBERTO PEVERATI, KIM BALDRIDGE
     N. COPERNICUS UNIVERSITY AND JACKSON STATE UNIVERSITY:
          MARIA BARYSZ

 EXECUTION OF GAMESS BEGUN Wed Jan 16 15:38:55 2019

            ECHO OF THE FIRST FEW INPUT CARDS -
 INPUT CARD> $CONTRL                                                                        
 INPUT CARD>     SCFTYP=ROHF                                                                
 INPUT CARD>     MULT=2                                                                     
 INPUT CARD>     ICHARG=0                                                                   
 INPUT CARD>     RUNTYP=ENERGY                                                              
 INPUT CARD>     MAXIT=150                                                                  
 INPUT CARD>     ECP=READ                                                                   
 INPUT CARD>     ISPHER=1                                                                   
 INPUT CARD> $END                                                                           
 INPUT CARD>                                                                                
 INPUT CARD> $SYSTEM                                                                        
 INPUT CARD>     KDIAG=3                                                                    
 INPUT CARD> $END                                                                           
 INPUT CARD>                                                                                
 INPUT CARD> $GUESS                                                                         
 INPUT CARD>    GUESS=HUCKEL                                                                
 INPUT CARD> $END                                                                           
 INPUT CARD>                                                                                
 INPUT CARD>                                                                                
 INPUT CARD> $DATA                                                                          
 INPUT CARD>                                                                                
 INPUT CARD>C1                                                                              
 INPUT CARD>Al 13    0. 0. 0.                                                               
 INPUT CARD>S   12                                                                          
 INPUT CARD>  1      78.990577   -0.00048100                                                
 INPUT CARD>  2      39.484884    0.01309500                                                
 INPUT CARD>  3      19.737241   -0.14615300                                                
 INPUT CARD>  4       9.866021   -0.04520600                                                
 INPUT CARD>  5       4.931711    0.19070800                                                
 INPUT CARD>  6       2.465206    0.45320700                                                
 INPUT CARD>  7       1.232278    0.39882400                                                
 INPUT CARD>  8       0.615977    0.10364800                                                
 INPUT CARD>  9       0.307907    0.00224700                                                
 INPUT CARD> 10       0.153913    0.00079000                                                
 INPUT CARD> 11       0.076936   -0.00014000                                                
 INPUT CARD> 12       0.038458    0.00006400                                                
 INPUT CARD>S   12                                                                          
 INPUT CARD>  1      78.990577    0.00002400                                                
 INPUT CARD>  2      39.484884   -0.00262700                                                
 INPUT CARD>  3      19.737241    0.03694800                                                
 INPUT CARD>  4       9.866021    0.01070500                                                
 INPUT CARD>  5       4.931711   -0.05334200                                                
 INPUT CARD>  6       2.465206   -0.14418800                                                
 INPUT CARD>  7       1.232278   -0.21396900                                                
 INPUT CARD>  8       0.615977   -0.12558500                                                
 INPUT CARD>  9       0.307907    0.19397000                                                
 INPUT CARD> 10       0.153913    0.48467400                                                
 INPUT CARD> 11       0.076936    0.41941400                                                
 INPUT CARD> 12       0.038458    0.11043000                                                
 INPUT CARD>S   1                                                                           
    1000000 WORDS OF MEMORY AVAILABLE


     RUN TITLE
     ---------
                                                                                 

 THE POINT GROUP OF THE MOLECULE IS C1      
 THE ORDER OF THE PRINCIPAL AXIS IS     0

 ATOM      ATOMIC                      COORDINATES (BOHR)
           CHARGE         X                   Y                   Z
 AL         13.0     0.0000000000        0.0000000000        0.0000000000

          INTERNUCLEAR DISTANCES (ANGS.)
          ------------------------------

                1 AL    

   1 AL      0.0000000  

  * ... LESS THAN  3.000


     ATOMIC BASIS SET
     ----------------
 THE CONTRACTED PRIMITIVE FUNCTIONS HAVE BEEN UNNORMALIZED
 THE CONTRACTED BASIS FUNCTIONS ARE NOW NORMALIZED TO UNITY

  SHELL TYPE  PRIMITIVE        EXPONENT          CONTRACTION COEFFICIENT(S)

 AL        

      1   S       1            78.9905770   -0.000481000411
      1   S       2            39.4848840    0.013095011182
      1   S       3            19.7372410   -0.146153124802
      1   S       4             9.8660210   -0.045206038602
      1   S       5             4.9317110    0.190708162849
      1   S       6             2.4652060    0.453207387001
      1   S       7             1.2322780    0.398824340562
      1   S       8             0.6159770    0.103648088507
      1   S       9             0.3079070    0.002247001919
      1   S      10             0.1539130    0.000790000675
      1   S      11             0.0769360   -0.000140000120
      1   S      12             0.0384580    0.000064000055

      2   S      13            78.9905770    0.000024000015
      2   S      14            39.4848840   -0.002627001663
      2   S      15            19.7372410    0.036948023393
      2   S      16             9.8660210    0.010705006778
      2   S      17             4.9317110   -0.053342033773
      2   S      18             2.4652060   -0.144188091290
      2   S      19             1.2322780   -0.213969135471
      2   S      20             0.6159770   -0.125585079512
      2   S      21             0.3079070    0.193970122809
      2   S      22             0.1539130    0.484674306862
      2   S      23             0.0769360    0.419414265544
      2   S      24             0.0384580    0.110430069917

      3   S      25             8.0078600    1.000000000000

      4   S      26             1.3936590    1.000000000000

      5   S      27             0.3858670    1.000000000000

      6   S      28             0.0627440    1.000000000000

      7   P      29            33.9933680    0.011907999613
      7   P      30            17.6170510    0.097484996828
      7   P      31             9.1300300    0.180473994128
      7   P      32             4.7316350    0.265521991361
      7   P      33             2.4521680    0.307976989980
      7   P      34             1.2708350    0.235060992352
      7   P      35             0.6586100    0.089630997084
      7   P      36             0.3413240    0.011082999639
      7   P      37             0.1768910    0.001576999949
      7   P      38             0.0916740    0.000007000000
      7   P      39             0.0475100    0.000214999993
      7   P      40             0.0246220   -0.000021999999

      8   P      41            33.9933680   -0.002182997980
      8   P      42            17.6170510   -0.017361983934
      8   P      43             9.1300300   -0.032291970118
      8   P      44             4.7316350   -0.049809953907
      8   P      45             2.4521680   -0.059925944546
      8   P      46             1.2708350   -0.052552951369
      8   P      47             0.6586100    0.001988998159
      8   P      48             0.3413240    0.130051879654
      8   P      49             0.1768910    0.280088740814
      8   P      50             0.0916740    0.374338653598
      8   P      51             0.0475100    0.272856747507
      8   P      52             0.0246220    0.085144921209

      9   P      53             3.4529990    1.000000000000

     10   P      54             1.2902860    1.000000000000

     11   P      55             0.2860020    1.000000000000

     12   P      56             0.0437560    1.000000000000

     13   D      57             9.0411300    1.000000000000

     14   D      58             2.7143220    1.000000000000

     15   D      59             0.3278380    1.000000000000

     16   D      60             0.1092060    1.000000000000

     17   F      61             5.8197750    1.000000000000

     18   F      62             0.2543420    1.000000000000

 TOTAL NUMBER OF BASIS SET SHELLS             =   18
 NUMBER OF CARTESIAN GAUSSIAN BASIS FUNCTIONS =   68
 NOTE: THIS RUN WILL RESTRICT THE MO VARIATION SPACE TO SPHERICAL HARMONICS.
 THE NUMBER OF ORBITALS KEPT IN THE VARIATIONAL SPACE WILL BE PRINTED LATER.
 NUMBER OF ELECTRONS                          =   13
 CHARGE OF MOLECULE                           =    0
 SPIN MULTIPLICITY                            =    2
 NUMBER OF OCCUPIED ORBITALS (ALPHA)          =    7
 NUMBER OF OCCUPIED ORBITALS (BETA )          =    6
 TOTAL NUMBER OF ATOMS                        =    1
 THE NUCLEAR REPULSION ENERGY IS        0.0000000000
 NOTE THIS RUN IS USING CORE POTENTIALS, AND THE NUMBER OF ELECTRONS,
 OCCUPIED ORBITALS, AND NUCLEAR REPULSION ENERGY WILL BE ADJUSTED BELOW
 AFTER REMOVAL OF THE CORE CHARGES.

 THIS MOLECULE IS RECOGNIZED AS BEING LINEAR,
 ORBITAL LZ DEGENERACY TOLERANCE ETOLLZ= 1.00E-06

     $CONTRL OPTIONS
     ---------------
 SCFTYP=ROHF         RUNTYP=ENERGY       EXETYP=RUN     
 MPLEVL=       0     CITYP =NONE         CCTYP =NONE         VBTYP =NONE    
 DFTTYP=NONE         TDDFT =NONE    
 MULT  =       2     ICHARG=       0     NZVAR =       0     COORD =UNIQUE  
 PP    =READ         RELWFN=NONE         LOCAL =NONE         NUMGRD=       F
 ISPHER=       1     NOSYM =       0     MAXIT =     150     UNITS =ANGS    
 PLTORB=       F     MOLPLT=       F     AIMPAC=       F     FRIEND=        
 NPRINT=       7     IREST =       0     GEOM  =INPUT   
 NORMF =       0     NORMP =       0     ITOL  =      20     ICUT  =       9
 INTTYP=BEST         GRDTYP=BEST         QMTTOL= 1.0E-06

     $SYSTEM OPTIONS
     ---------------
  REPLICATED MEMORY=     1000000 WORDS (ON EVERY NODE).
 DISTRIBUTED MEMDDI=           0 MILLION WORDS IN AGGREGATE,
 MEMDDI DISTRIBUTED OVER   1 PROCESSORS IS           0 WORDS/PROCESSOR.
 TOTAL MEMORY REQUESTED ON EACH PROCESSOR=     1000000 WORDS.
 TIMLIM=      525600.00 MINUTES, OR     365.0 DAYS.
 PARALL= F  BALTYP=  DLB     KDIAG=    3  COREFL= F
 MXSEQ2=     300 MXSEQ3=     150

          --------------
          ECP POTENTIALS
          --------------

 PARAMETERS FOR "AL-CCECP" ON ATOM    1 WITH ZCORE   2 AND LMAX  1 ARE
 FOR L= 1      COEFF    N           ZETA
    1       11.00000    1       11.06206
    2      121.68262    3       12.36978
    3      -82.62457    2       11.96544
 FOR L= 0      COEFF    N           ZETA
    1       25.15726    2       81.81556
    2      113.06753    2       24.52288

 THE ECP RUN REMOVES    2 CORE ELECTRONS, AND THE SAME NUMBER OF PROTONS.
 NUMBER OF ELECTRONS KEPT IN THE CALCULATION IS =   11
 NUMBER OF OCCUPIED ORBITALS (ALPHA) KEPT IS    =    6
 NUMBER OF OCCUPIED ORBITALS (BETA ) KEPT IS    =    5
 THE ADJUSTED NUCLEAR REPULSION ENERGY=        0.0000000000
          ECP ANGULAR INTS.........     0.00 SECONDS

          ----------------
          PROPERTIES INPUT
          ----------------

     MOMENTS            FIELD           POTENTIAL          DENSITY
 IEMOM =       1   IEFLD =       0   IEPOT =       0   IEDEN =       0
 WHERE =COMASS     WHERE =NUCLEI     WHERE =NUCLEI     WHERE =NUCLEI  
 OUTPUT=BOTH       OUTPUT=BOTH       OUTPUT=BOTH       OUTPUT=BOTH    
 IEMINT=       0   IEFINT=       0                     IEDINT=       0
                                                       MORB  =       0
          EXTRAPOLATION IN EFFECT
          SOSCF IN EFFECT
 ORBITAL PRINTING OPTION: NPREO=     1    68     2     1

     -------------------------------
     INTEGRAL TRANSFORMATION OPTIONS
     -------------------------------
     NWORD  =            0
     CUTOFF = 1.0E-09     MPTRAN =       0
     DIRTRF =       F     AOINTS =DUP     

          ----------------------
          INTEGRAL INPUT OPTIONS
          ----------------------
 NOPK  =       1 NORDER=       0 SCHWRZ=       F

     ------------------------------------------
     THE POINT GROUP IS C1 , NAXIS= 0, ORDER= 1
     ------------------------------------------

 -- VARIATIONAL SPACE WILL BE RESTRICTED TO PURE SPHERICAL HARMONICS ONLY --
 AFTER EXCLUDING CONTAMINANT COMBINATIONS FROM THE CARTESIAN GAUSSIAN BASIS
 SET, THE NUMBER OF SPHERICAL HARMONICS KEPT IN THE VARIATION SPACE IS   58

     DIMENSIONS OF THE SYMMETRY SUBSPACES ARE
 A   =   58

 ..... DONE SETTING UP THE RUN .....
 STEP CPU TIME =     0.01 TOTAL CPU TIME =        0.0 (    0.0 MIN)
 TOTAL WALL CLOCK TIME=        0.2 SECONDS, CPU UTILIZATION IS   6.25%

          ********************
          1 ELECTRON INTEGRALS
          ********************
 TIME TO DO ORDINARY INTEGRALS=      0.00
 TIME TO DO      ECP INTEGRALS=      0.00
 ...... END OF ONE-ELECTRON INTEGRALS ......
 STEP CPU TIME =     0.01 TOTAL CPU TIME =        0.0 (    0.0 MIN)
 TOTAL WALL CLOCK TIME=        0.2 SECONDS, CPU UTILIZATION IS  10.00%

          -------------
          GUESS OPTIONS
          -------------
          GUESS =HUCKEL            NORB  =       0          NORDER=       0
          MIX   =       F          PRTMO =       F          PUNMO =       F
          TOLZ  = 1.0E-08          TOLE  = 1.0E-05
          SYMDEN=       F          PURIFY=       F

 INITIAL GUESS ORBITALS GENERATED BY HUCKEL   ROUTINE.
 HUCKEL GUESS REQUIRES     34899 WORDS.

 STATISTICS FOR GENERATION OF SYMMETRY ORBITAL -Q- MATRIX
 NUMBER OF CARTESIAN ATOMIC ORBITALS=         68
 NUMBER OF SPHERICAL CONTAMINANTS DROPPED=    10
 NUMBER OF LINEARLY DEPENDENT MOS DROPPED=     0
 TOTAL NUMBER OF MOS IN VARIATION SPACE=      58

 SYMMETRIES FOR INITIAL GUESS ORBITALS FOLLOW.  ALPHA SET(S).
     6 ORBITALS ARE OCCUPIED (    4 CORE ORBITALS).
     5=A        6=A        7=A        8=A        9=A       10=A       11=A   
    12=A       13=A       14=A       15=A       16=A   

 SYMMETRIES FOR INITIAL GUESS ORBITALS FOLLOW.   BETA SET(S).
     5 ORBITALS ARE OCCUPIED (    4 CORE ORBITALS).
     5=A        6=A        7=A        8=A        9=A       10=A       11=A   
    12=A       13=A       14=A       15=A   
 ...... END OF INITIAL ORBITAL SELECTION ......
 STEP CPU TIME =     0.00 TOTAL CPU TIME =        0.0 (    0.0 MIN)
 TOTAL WALL CLOCK TIME=        0.2 SECONDS, CPU UTILIZATION IS   8.00%

                    ----------------------
                    AO INTEGRAL TECHNOLOGY
                    ----------------------
     S,P,L SHELL ROTATED AXIS INTEGRALS, REPROGRAMMED BY
        KAZUYA ISHIMURA (IMS) AND JOSE SIERRA (SYNSTAR).
     S,P,D,L SHELL ROTATED AXIS INTEGRALS PROGRAMMED BY
        KAZUYA ISHIMURA (INSTITUTE FOR MOLECULAR SCIENCE).
     S,P,D,F,G SHELL TO TOTAL QUARTET ANGULAR MOMENTUM SUM 5,
        ERIC PROGRAM BY GRAHAM FLETCHER (ELORET AND NASA ADVANCED
        SUPERCOMPUTING DIVISION, AMES RESEARCH CENTER).
     S,P,D,F,G,L SHELL GENERAL RYS QUADRATURE PROGRAMMED BY
        MICHEL DUPUIS (PACIFIC NORTHWEST NATIONAL LABORATORY).

          --------------------
          2 ELECTRON INTEGRALS
          --------------------

 THE -PK- OPTION IS OFF, THE INTEGRALS ARE NOT IN SUPERMATRIX FORM.
 STORING   15000 INTEGRALS/RECORD ON DISK, USING 12 BYTES/INTEGRAL.
 TWO ELECTRON INTEGRAL EVALUATION REQUIRES   99271 WORDS OF MEMORY.
 II,JST,KST,LST =  1  1  1  1 NREC =         1 INTLOC =    1
 II,JST,KST,LST =  2  1  1  1 NREC =         1 INTLOC =    2
 II,JST,KST,LST =  3  1  1  1 NREC =         1 INTLOC =    7
 II,JST,KST,LST =  4  1  1  1 NREC =         1 INTLOC =   22
 II,JST,KST,LST =  5  1  1  1 NREC =         1 INTLOC =   56
 II,JST,KST,LST =  6  1  1  1 NREC =         1 INTLOC =  121
 II,JST,KST,LST =  7  1  1  1 NREC =         1 INTLOC =  232
 II,JST,KST,LST =  8  1  1  1 NREC =         1 INTLOC =  367
 II,JST,KST,LST =  9  1  1  1 NREC =         1 INTLOC =  730
 II,JST,KST,LST = 10  1  1  1 NREC =         1 INTLOC = 1429
 II,JST,KST,LST = 11  1  1  1 NREC =         1 INTLOC = 2635
 II,JST,KST,LST = 12  1  1  1 NREC =         1 INTLOC = 4582
 II,JST,KST,LST = 13  1  1  1 NREC =         1 INTLOC = 7567
 II,JST,KST,LST = 14  1  1  1 NREC =         2 INTLOC = 1264
 II,JST,KST,LST = 15  1  1  1 NREC =         3 INTLOC = 2200
 II,JST,KST,LST = 16  1  1  1 NREC =         4 INTLOC =13075
 II,JST,KST,LST = 17  1  1  1 NREC =         7 INTLOC = 7597
 II,JST,KST,LST = 18  1  1  1 NREC =        14 INTLOC = 3071
 TOTAL NUMBER OF NONZERO TWO-ELECTRON INTEGRALS =              365199
         25 INTEGRAL RECORDS WERE STORED ON DISK FILE  8.
  ...... END OF TWO-ELECTRON INTEGRALS .....
 STEP CPU TIME =     0.30 TOTAL CPU TIME =        0.3 (    0.0 MIN)
 TOTAL WALL CLOCK TIME=        0.6 SECONDS, CPU UTILIZATION IS  56.14%

          ---------------------------
                 ROHF SCF CALCULATION
          ---------------------------

     NUCLEAR ENERGY =         0.0000000000
     MAXIT =150     NPUNCH=  2     MULT=  2
     EXTRAP=T  DAMP=F  SHIFT=F  RSTRCT=F  DIIS=F  SOSCF=T
     DENSITY MATRIX CONV=  1.00E-05
     ROHF CANONICALIZATION PARAMETERS
             C-C     O-O     V-V
     ALPHA -0.5000  0.5000  1.5000
     BETA   1.5000  0.5000 -0.5000
     SOSCF WILL OPTIMIZE     317 ORBITAL ROTATION ANGLES. SOGTOL= 2.500E-01
     MEMORY REQUIRED FOR UHF/ROHF ITERS=     74481 WORDS.

 ITER EX      TOTAL ENERGY        E CHANGE  DENSITY CHANGE    ORB. GRAD 
   1  0      -80.7882381298   -80.7882381298   0.698540579   0.000000000
          ---------------START SECOND ORDER SCF---------------
   2  1      -80.9893186405    -0.2010805107   0.343790845   0.058909328
   3  2      -80.9930787951    -0.0037601546   0.075317254   0.012600404
   4  3      -80.9933483342    -0.0002695391   0.004736451   0.000509272
   5  4      -80.9933496259    -0.0000012917   0.001222774   0.000117857
   6  5      -80.9933497035    -0.0000000775   0.000028521   0.000016563
   7  6      -80.9933497037    -0.0000000002   0.000009050   0.000000827
   8  7      -80.9933497037    -0.0000000000   0.000001482   0.000000072

          -----------------
          DENSITY CONVERGED
          -----------------
     TIME TO FORM FOCK OPERATORS=       0.0 SECONDS (       0.0 SEC/ITER)
     TIME TO SOLVE SCF EQUATIONS=       0.0 SECONDS (       0.0 SEC/ITER)

 FINAL ROHF ENERGY IS      -80.9933497037 AFTER   8 ITERATIONS

          --------------------
          SPIN SZ   =    0.500
          S-SQUARED =    0.750
          --------------------

 LZ VALUE ANALYSIS FOR THE MOS
 ----------------------------------------
 MO     1 (    1) HAS LZ(WEIGHT)= 0.00(100.0%) 
 MO     2 (    2) HAS LZ(WEIGHT)= 0.00(100.0%) 
 MO     3 (    2) HAS LZ(WEIGHT)= 0.00(100.0%) 
 MO     4 (    3) HAS LZ(WEIGHT)= 0.00(100.0%) 
 MO     5 (    4) HAS LZ(WEIGHT)= 0.00(100.0%) 
 MO     6 (    5) HAS LZ(WEIGHT)= 0.00(100.0%) 
 MO     7 (    6) HAS LZ(WEIGHT)= 0.00(100.0%) 
 MO     8 (    6) HAS LZ(WEIGHT)= 0.00(100.0%) 
 MO     9 (    7) HAS LZ(WEIGHT)= 0.00(100.0%) 
 MO    10 (    8) HAS LZ(WEIGHT)= 0.00(100.0%) 
 MO    11 (    8) HAS LZ(WEIGHT)= 0.00(100.0%) 
 MO    12 (    9) HAS LZ(WEIGHT)= 0.00(100.0%) 
 MO    13 (   10) HAS LZ(WEIGHT)= 0.00(100.0%) 
 MO    14 (   11) HAS LZ(WEIGHT)= 0.00(100.0%) 
 MO    15 (   11) HAS LZ(WEIGHT)= 0.00(100.0%) 
 MO    16 (   12) HAS LZ(WEIGHT)= 0.00(100.0%) 
 MO    17 (   12) HAS LZ(WEIGHT)= 0.00(100.0%) 
 MO    18 (   13) HAS LZ(WEIGHT)= 0.00(100.0%) 
 MO    19 (   14) HAS LZ(WEIGHT)= 0.00(100.0%) 
 MO    20 (   14) HAS LZ(WEIGHT)= 0.00(100.0%) 
 MO    21 (   15) HAS LZ(WEIGHT)= 0.00(100.0%) 
 MO    22 (   16) HAS LZ(WEIGHT)= 0.00(100.0%) 
 MO    23 (   16) HAS LZ(WEIGHT)= 0.00(100.0%) 
 MO    24 (   17) HAS LZ(WEIGHT)= 0.00(100.0%) 
 MO    25 (   17) HAS LZ(WEIGHT)= 0.00(100.0%) 
 MO    26 (   18) HAS LZ(WEIGHT)= 0.00(100.0%) 
 MO    27 (   19) HAS LZ(WEIGHT)= 0.00(100.0%) 
 MO    28 (   19) HAS LZ(WEIGHT)= 0.00(100.0%) 
 MO    29 (   20) HAS LZ(WEIGHT)= 0.00(100.0%) 
 MO    30 (   20) HAS LZ(WEIGHT)= 0.00(100.0%) 
 MO    31 (   21) HAS LZ(WEIGHT)= 0.00(100.0%) 
 MO    32 (   21) HAS LZ(WEIGHT)= 0.00(100.0%) 
 MO    33 (   22) HAS LZ(WEIGHT)= 0.00(100.0%) 
 MO    34 (   23) HAS LZ(WEIGHT)= 0.00(100.0%) 
 MO    35 (   24) HAS LZ(WEIGHT)= 0.00(100.0%) 
 MO    36 (   24) HAS LZ(WEIGHT)= 0.00(100.0%) 
 MO    37 (   25) HAS LZ(WEIGHT)= 0.00(100.0%) 
 MO    38 (   25) HAS LZ(WEIGHT)= 0.00(100.0%) 
 MO    39 (   26) HAS LZ(WEIGHT)= 0.00(100.0%) 
 MO    40 (   26) HAS LZ(WEIGHT)= 0.00(100.0%) 
 MO    41 (   27) HAS LZ(WEIGHT)= 0.00(100.0%) 
 MO    42 (   28) HAS LZ(WEIGHT)= 0.00(100.0%) 
 MO    43 (   29) HAS LZ(WEIGHT)= 0.00(100.0%) 
 MO    44 (   30) HAS LZ(WEIGHT)= 0.00(100.0%) 
 MO    45 (   30) HAS LZ(WEIGHT)= 0.00(100.0%) 
 MO    46 (   31) HAS LZ(WEIGHT)= 0.00(100.0%) 
 MO    47 (   31) HAS LZ(WEIGHT)= 0.00(100.0%) 
 MO    48 (   32) HAS LZ(WEIGHT)= 0.00(100.0%) 
 MO    49 (   32) HAS LZ(WEIGHT)= 0.00(100.0%) 
 MO    50 (   33) HAS LZ(WEIGHT)= 0.00(100.0%) 
 MO    51 (   33) HAS LZ(WEIGHT)= 0.00(100.0%) 
 MO    52 (   34) HAS LZ(WEIGHT)= 0.00(100.0%) 
 MO    53 (   35) HAS LZ(WEIGHT)= 0.00(100.0%) 
 MO    54 (   36) HAS LZ(WEIGHT)= 0.00(100.0%) 
 MO    55 (   36) HAS LZ(WEIGHT)= 0.00(100.0%) 
 MO    56 (   37) HAS LZ(WEIGHT)= 0.00(100.0%) 
 MO    57 (   37) HAS LZ(WEIGHT)= 0.00(100.0%) 
 MO    58 (   38) HAS LZ(WEIGHT)= 0.00(100.0%) 

          ------------
          EIGENVECTORS
          ------------

                      1          2          3          4          5
                   -4.8962    -3.2769    -3.2769    -3.2621    -0.3314
                     A          A          A          A          A   
    1  AL 1  S    0.999995   0.000000   0.000000   0.000000   0.000629
    2  AL 1  S   -0.000551   0.000000   0.000000   0.000000   1.000355
    3  AL 1  S    0.000001   0.000000   0.000000   0.000000   0.000002
    4  AL 1  S    0.000003   0.000000   0.000000   0.000000   0.000052
    5  AL 1  S    0.000001   0.000000   0.000000   0.000000  -0.000047
    6  AL 1  S   -0.000002   0.000000   0.000000   0.000000  -0.000391
    7  AL 1  X    0.000000   0.000000   0.000000   1.001918   0.000000
    8  AL 1  Y    0.000000   0.000000   0.999032   0.000000   0.000000
    9  AL 1  Z    0.000000   0.999032   0.000000   0.000000   0.000000
   10  AL 1  X    0.000000   0.000000   0.000000   0.001419   0.000000
   11  AL 1  Y    0.000000   0.000000  -0.000907   0.000000   0.000000
   12  AL 1  Z    0.000000  -0.000907   0.000000   0.000000   0.000000
   13  AL 1  X    0.000000   0.000000   0.000000   0.000296   0.000000
   14  AL 1  Y    0.000000   0.000000  -0.000141   0.000000   0.000000
   15  AL 1  Z    0.000000  -0.000141   0.000000   0.000000   0.000000
   16  AL 1  X    0.000000   0.000000   0.000000  -0.001788   0.000000
   17  AL 1  Y    0.000000   0.000000   0.000890   0.000000   0.000000
   18  AL 1  Z    0.000000   0.000890   0.000000   0.000000   0.000000
   19  AL 1  X    0.000000   0.000000   0.000000  -0.001887   0.000000
   20  AL 1  Y    0.000000   0.000000   0.000955   0.000000   0.000000
   21  AL 1  Z    0.000000   0.000955   0.000000   0.000000   0.000000
   22  AL 1  X    0.000000   0.000000   0.000000  -0.000771   0.000000
   23  AL 1  Y    0.000000   0.000000   0.000393   0.000000   0.000000
   24  AL 1  Z    0.000000   0.000393   0.000000   0.000000   0.000000
   25  AL 1 XX    0.000052   0.000000   0.000000   0.000000  -0.000061
   26  AL 1 YY   -0.000026   0.000000   0.000000   0.000000   0.000031
   27  AL 1 ZZ   -0.000026   0.000000   0.000000   0.000000   0.000031
   28  AL 1 XY    0.000000   0.000000   0.000000   0.000000   0.000000
   29  AL 1 XZ    0.000000   0.000000   0.000000   0.000000   0.000000
   30  AL 1 YZ    0.000000   0.000000   0.000000   0.000000   0.000000
   31  AL 1 XX   -0.000687   0.000000   0.000000   0.000000  -0.000012
   32  AL 1 YY    0.000344   0.000000   0.000000   0.000000   0.000006
   33  AL 1 ZZ    0.000344   0.000000   0.000000   0.000000   0.000006
   34  AL 1 XY    0.000000   0.000000   0.000000   0.000000   0.000000
   35  AL 1 XZ    0.000000   0.000000   0.000000   0.000000   0.000000
   36  AL 1 YZ    0.000000   0.000000   0.000000   0.000000   0.000000
   37  AL 1 XX   -0.000428   0.000000   0.000000   0.000000  -0.002444
   38  AL 1 YY    0.000214   0.000000   0.000000   0.000000   0.001222
   39  AL 1 ZZ    0.000214   0.000000   0.000000   0.000000   0.001222
   40  AL 1 XY    0.000000   0.000000   0.000000   0.000000   0.000000
   41  AL 1 XZ    0.000000   0.000000   0.000000   0.000000   0.000000
   42  AL 1 YZ    0.000000   0.000000   0.000000   0.000000   0.000000
   43  AL 1 XX    0.000293   0.000000   0.000000   0.000000   0.008963
   44  AL 1 YY   -0.000146   0.000000   0.000000   0.000000  -0.004481
   45  AL 1 ZZ   -0.000146   0.000000   0.000000   0.000000  -0.004481
   46  AL 1 XY    0.000000   0.000000   0.000000   0.000000   0.000000
   47  AL 1 XZ    0.000000   0.000000   0.000000   0.000000   0.000000
   48  AL 1 YZ    0.000000   0.000000   0.000000   0.000000   0.000000
   49  AL 1 XXX   0.000000   0.000000   0.000000  -0.000198   0.000000
   50  AL 1 YYY   0.000000   0.000000   0.000099   0.000000   0.000000
   51  AL 1 ZZZ   0.000000   0.000099   0.000000   0.000000   0.000000
   52  AL 1 XXY   0.000000   0.000000  -0.000177   0.000000   0.000000
   53  AL 1 XXZ   0.000000  -0.000177   0.000000   0.000000   0.000000
   54  AL 1 YYX   0.000000   0.000000   0.000000   0.000133   0.000000
   55  AL 1 YYZ   0.000000   0.000044   0.000000   0.000000   0.000000
   56  AL 1 ZZX   0.000000   0.000000   0.000000   0.000133   0.000000
   57  AL 1 ZZY   0.000000   0.000000   0.000044   0.000000   0.000000
   58  AL 1 XYZ   0.000000   0.000000   0.000000   0.000000   0.000000
   59  AL 1 XXX   0.000000   0.000000   0.000000  -0.000212   0.000000
   60  AL 1 YYY   0.000000   0.000000   0.000108   0.000000   0.000000
   61  AL 1 ZZZ   0.000000   0.000108   0.000000   0.000000   0.000000
   62  AL 1 XXY   0.000000   0.000000  -0.000192   0.000000   0.000000
   63  AL 1 XXZ   0.000000  -0.000192   0.000000   0.000000   0.000000
   64  AL 1 YYX   0.000000   0.000000   0.000000   0.000142   0.000000
   65  AL 1 YYZ   0.000000   0.000048   0.000000   0.000000   0.000000
   66  AL 1 ZZX   0.000000   0.000000   0.000000   0.000142   0.000000
   67  AL 1 ZZY   0.000000   0.000000   0.000048   0.000000   0.000000
   68  AL 1 XYZ   0.000000   0.000000   0.000000   0.000000   0.000000

                      6          7          8          9         10
                   -0.0671     0.0092     0.0092     0.1630     0.1957
                     A          A          A          A          A   
    1  AL 1  S    0.000000   0.000000   0.000000   0.000000   0.000000
    2  AL 1  S    0.000000   0.000000   0.000000   0.000000   0.000000
    3  AL 1  S    0.000000   0.000000   0.000000   0.000000   0.000000
    4  AL 1  S    0.000000   0.000000   0.000000   0.000000   0.000000
    5  AL 1  S    0.000000   0.000000   0.000000   0.000000   0.000000
    6  AL 1  S    0.000000   0.000000   0.000000   0.000000   0.000000
    7  AL 1  X    0.000862   0.000000   0.000000   0.357932   0.000000
    8  AL 1  Y    0.000000   0.000000  -0.056369   0.000000   0.401956
    9  AL 1  Z    0.000000  -0.056369   0.000000   0.000000   0.000000
   10  AL 1  X    1.000646   0.000000   0.000000   2.738690   0.000000
   11  AL 1  Y    0.000000   0.000000   0.437879   0.000000   3.109671
   12  AL 1  Z    0.000000   0.437879   0.000000   0.000000   0.000000
   13  AL 1  X   -0.000015   0.000000   0.000000   0.004304   0.000000
   14  AL 1  Y    0.000000   0.000000  -0.000154   0.000000   0.005464
   15  AL 1  Z    0.000000  -0.000154   0.000000   0.000000   0.000000
   16  AL 1  X    0.000060   0.000000   0.000000   0.027867   0.000000
   17  AL 1  Y    0.000000   0.000000  -0.005574   0.000000   0.030151
   18  AL 1  Z    0.000000  -0.005574   0.000000   0.000000   0.000000
   19  AL 1  X   -0.000072   0.000000   0.000000  -0.688542   0.000000
   20  AL 1  Y    0.000000   0.000000   0.088923   0.000000  -0.815902
   21  AL 1  Z    0.000000   0.088923   0.000000   0.000000   0.000000
   22  AL 1  X   -0.000701   0.000000   0.000000  -2.612202   0.000000
   23  AL 1  Y    0.000000   0.000000   0.547465   0.000000  -2.666338
   24  AL 1  Z    0.000000   0.547465   0.000000   0.000000   0.000000
   25  AL 1 XX    0.000000   0.000000   0.000000   0.000000   0.000000
   26  AL 1 YY    0.000000   0.000000   0.000000   0.000000   0.000000
   27  AL 1 ZZ    0.000000   0.000000   0.000000   0.000000   0.000000
   28  AL 1 XY    0.000000   0.000000   0.000000   0.000000   0.000000
   29  AL 1 XZ    0.000000   0.000000   0.000000   0.000000   0.000000
   30  AL 1 YZ    0.000000   0.000000   0.000000   0.000000   0.000000
   31  AL 1 XX    0.000000   0.000000   0.000000   0.000000   0.000000
   32  AL 1 YY    0.000000   0.000000   0.000000   0.000000   0.000000
   33  AL 1 ZZ    0.000000   0.000000   0.000000   0.000000   0.000000
   34  AL 1 XY    0.000000   0.000000   0.000000   0.000000   0.000000
   35  AL 1 XZ    0.000000   0.000000   0.000000   0.000000   0.000000
   36  AL 1 YZ    0.000000   0.000000   0.000000   0.000000   0.000000
   37  AL 1 XX    0.000000   0.000000   0.000000   0.000000   0.000000
   38  AL 1 YY    0.000000   0.000000   0.000000   0.000000   0.000000
   39  AL 1 ZZ    0.000000   0.000000   0.000000   0.000000   0.000000
   40  AL 1 XY    0.000000   0.000000   0.000000   0.000000   0.000000
   41  AL 1 XZ    0.000000   0.000000   0.000000   0.000000   0.000000
   42  AL 1 YZ    0.000000   0.000000   0.000000   0.000000   0.000000
   43  AL 1 XX    0.000000   0.000000   0.000000   0.000000   0.000000
   44  AL 1 YY    0.000000   0.000000   0.000000   0.000000   0.000000
   45  AL 1 ZZ    0.000000   0.000000   0.000000   0.000000   0.000000
   46  AL 1 XY    0.000000   0.000000   0.000000   0.000000   0.000000
   47  AL 1 XZ    0.000000   0.000000   0.000000   0.000000   0.000000
   48  AL 1 YZ    0.000000   0.000000   0.000000   0.000000   0.000000
   49  AL 1 XXX  -0.000001   0.000000   0.000000  -0.000005   0.000000
   50  AL 1 YYY   0.000000   0.000000  -0.000004   0.000000   0.000000
   51  AL 1 ZZZ   0.000000  -0.000004   0.000000   0.000000   0.000000
   52  AL 1 XXY   0.000000   0.000000   0.000007   0.000000  -0.000001
   53  AL 1 XXZ   0.000000   0.000007   0.000000   0.000000   0.000000
   54  AL 1 YYX   0.000000   0.000000   0.000000   0.000003   0.000000
   55  AL 1 YYZ   0.000000  -0.000002   0.000000   0.000000   0.000000
   56  AL 1 ZZX   0.000000   0.000000   0.000000   0.000003   0.000000
   57  AL 1 ZZY   0.000000   0.000000  -0.000002   0.000000   0.000000
   58  AL 1 XYZ   0.000000   0.000000   0.000000   0.000000   0.000000
   59  AL 1 XXX  -0.000070   0.000000   0.000000   0.001176   0.000000
   60  AL 1 YYY   0.000000   0.000000  -0.005537   0.000000  -0.002278
   61  AL 1 ZZZ   0.000000  -0.005537   0.000000   0.000000   0.000000
   62  AL 1 XXY   0.000000   0.000000   0.009905   0.000000   0.004076
   63  AL 1 XXZ   0.000000   0.009905   0.000000   0.000000   0.000000
   64  AL 1 YYX   0.000047   0.000000   0.000000  -0.000789   0.000000
   65  AL 1 YYZ   0.000000  -0.002476   0.000000   0.000000   0.000000
   66  AL 1 ZZX   0.000047   0.000000   0.000000  -0.000789   0.000000
   67  AL 1 ZZY   0.000000   0.000000  -0.002476   0.000000  -0.001019
   68  AL 1 XYZ   0.000000   0.000000   0.000000   0.000000   0.000000

                     11         12         13         14         15
                    0.1957     0.2128     0.2294     0.2344     0.2344
                     A          A          A          A          A   
    1  AL 1  S    0.000000  -0.693761   0.458514   0.000000   0.000000
    2  AL 1  S    0.000000  -3.383697   2.192206   0.000000   0.000000
    3  AL 1  S    0.000000  -0.007621   0.005159   0.000000   0.000000
    4  AL 1  S    0.000000  -0.501895   0.334533   0.000000   0.000000
    5  AL 1  S    0.000000   0.485278  -0.342678   0.000000   0.000000
    6  AL 1  S    0.000000   3.387564  -2.187789   0.000000   0.000000
    7  AL 1  X    0.000000   0.000000   0.000000   0.000000   0.000000
    8  AL 1  Y    0.000000   0.000000   0.000000   0.000000   0.000000
    9  AL 1  Z    0.401956   0.000000   0.000000   0.000000   0.000000
   10  AL 1  X    0.000000   0.000000   0.000000   0.000000   0.000000
   11  AL 1  Y    0.000000   0.000000   0.000000   0.000000   0.000000
   12  AL 1  Z    3.109671   0.000000   0.000000   0.000000   0.000000
   13  AL 1  X    0.000000   0.000000   0.000000   0.000000   0.000000
   14  AL 1  Y    0.000000   0.000000   0.000000   0.000000   0.000000
   15  AL 1  Z    0.005464   0.000000   0.000000   0.000000   0.000000
   16  AL 1  X    0.000000   0.000000   0.000000   0.000000   0.000000
   17  AL 1  Y    0.000000   0.000000   0.000000   0.000000   0.000000
   18  AL 1  Z    0.030151   0.000000   0.000000   0.000000   0.000000
   19  AL 1  X    0.000000   0.000000   0.000000   0.000000   0.000000
   20  AL 1  Y    0.000000   0.000000   0.000000   0.000000   0.000000
   21  AL 1  Z   -0.815902   0.000000   0.000000   0.000000   0.000000
   22  AL 1  X    0.000000   0.000000   0.000000   0.000000   0.000000
   23  AL 1  Y    0.000000   0.000000   0.000000   0.000000   0.000000
   24  AL 1  Z   -2.666338   0.000000   0.000000   0.000000   0.000000
   25  AL 1 XX    0.000000   0.000195   0.000110   0.000000   0.000000
   26  AL 1 YY    0.000000  -0.000097  -0.000055   0.000000   0.000000
   27  AL 1 ZZ    0.000000  -0.000097  -0.000055   0.000000   0.000000
   28  AL 1 XY    0.000000   0.000000   0.000000   0.000000   0.000157
   29  AL 1 XZ    0.000000   0.000000   0.000000   0.000157   0.000000
   30  AL 1 YZ    0.000000   0.000000   0.000000   0.000000   0.000000
   31  AL 1 XX    0.000000   0.008915   0.014026   0.000000   0.000000
   32  AL 1 YY    0.000000  -0.004457  -0.007013   0.000000   0.000000
   33  AL 1 ZZ    0.000000  -0.004457  -0.007013   0.000000   0.000000
   34  AL 1 XY    0.000000   0.000000   0.000000   0.000000   0.016464
   35  AL 1 XZ    0.000000   0.000000   0.000000   0.016464   0.000000
   36  AL 1 YZ    0.000000   0.000000   0.000000   0.000000   0.000000
   37  AL 1 XX    0.000000   0.023917   0.034743   0.000000   0.000000
   38  AL 1 YY    0.000000  -0.011958  -0.017372   0.000000   0.000000
   39  AL 1 ZZ    0.000000  -0.011958  -0.017372   0.000000   0.000000
   40  AL 1 XY    0.000000   0.000000   0.000000   0.000000   0.032604
   41  AL 1 XZ    0.000000   0.000000   0.000000   0.032604   0.000000
   42  AL 1 YZ    0.000000   0.000000   0.000000   0.000000   0.000000
   43  AL 1 XX    0.000000   0.520902   0.821906   0.000000   0.000000
   44  AL 1 YY    0.000000  -0.260451  -0.410953   0.000000   0.000000
   45  AL 1 ZZ    0.000000  -0.260451  -0.410953   0.000000   0.000000
   46  AL 1 XY    0.000000   0.000000   0.000000   0.000000   0.979153
   47  AL 1 XZ    0.000000   0.000000   0.000000   0.979153   0.000000
   48  AL 1 YZ    0.000000   0.000000   0.000000   0.000000   0.000000
   49  AL 1 XXX   0.000000   0.000000   0.000000   0.000000   0.000000
   50  AL 1 YYY   0.000000   0.000000   0.000000   0.000000   0.000000
   51  AL 1 ZZZ   0.000000   0.000000   0.000000   0.000000   0.000000
   52  AL 1 XXY   0.000000   0.000000   0.000000   0.000000   0.000000
   53  AL 1 XXZ  -0.000001   0.000000   0.000000   0.000000   0.000000
   54  AL 1 YYX   0.000000   0.000000   0.000000   0.000000   0.000000
   55  AL 1 YYZ   0.000000   0.000000   0.000000   0.000000   0.000000
   56  AL 1 ZZX   0.000000   0.000000   0.000000   0.000000   0.000000
   57  AL 1 ZZY   0.000000   0.000000   0.000000   0.000000   0.000000
   58  AL 1 XYZ   0.000000   0.000000   0.000000   0.000000   0.000000
   59  AL 1 XXX   0.000000   0.000000   0.000000   0.000000   0.000000
   60  AL 1 YYY   0.000000   0.000000   0.000000   0.000000   0.000000
   61  AL 1 ZZZ  -0.002278   0.000000   0.000000   0.000000   0.000000
   62  AL 1 XXY   0.000000   0.000000   0.000000   0.000000   0.000000
   63  AL 1 XXZ   0.004076   0.000000   0.000000   0.000000   0.000000
   64  AL 1 YYX   0.000000   0.000000   0.000000   0.000000   0.000000
   65  AL 1 YYZ  -0.001019   0.000000   0.000000   0.000000   0.000000
   66  AL 1 ZZX   0.000000   0.000000   0.000000   0.000000   0.000000
   67  AL 1 ZZY   0.000000   0.000000   0.000000   0.000000   0.000000
   68  AL 1 XYZ   0.000000   0.000000   0.000000   0.000000   0.000000

                     16         17         18         19         20
                    0.2652     0.2652     0.7845     0.8001     0.8001
                     A          A          A          A          A   
    1  AL 1  S    0.000000   0.000000   0.000000   0.000000   0.000000
    2  AL 1  S    0.000000   0.000000   0.000000   0.000000   0.000000
    3  AL 1  S    0.000000   0.000000   0.000000   0.000000   0.000000
    4  AL 1  S    0.000000   0.000000   0.000000   0.000000   0.000000
    5  AL 1  S    0.000000   0.000000   0.000000   0.000000   0.000000
    6  AL 1  S    0.000000   0.000000   0.000000   0.000000   0.000000
    7  AL 1  X    0.000000   0.000000   1.194185   0.000000   0.000000
    8  AL 1  Y    0.000000   0.000000   0.000000   1.178797   0.000000
    9  AL 1  Z    0.000000   0.000000   0.000000   0.000000   1.178797
   10  AL 1  X    0.000000   0.000000   4.775110   0.000000   0.000000
   11  AL 1  Y    0.000000   0.000000   0.000000   4.635301   0.000000
   12  AL 1  Z    0.000000   0.000000   0.000000   0.000000   4.635301
   13  AL 1  X    0.000000   0.000000   0.008009   0.000000   0.000000
   14  AL 1  Y    0.000000   0.000000   0.000000   0.005145   0.000000
   15  AL 1  Z    0.000000   0.000000   0.000000   0.000000   0.005145
   16  AL 1  X    0.000000   0.000000   0.124162   0.000000   0.000000
   17  AL 1  Y    0.000000   0.000000   0.000000   0.130635   0.000000
   18  AL 1  Z    0.000000   0.000000   0.000000   0.000000   0.130635
   19  AL 1  X    0.000000   0.000000  -3.259640   0.000000   0.000000
   20  AL 1  Y    0.000000   0.000000   0.000000  -3.234469   0.000000
   21  AL 1  Z    0.000000   0.000000   0.000000   0.000000  -3.234469
   22  AL 1  X    0.000000   0.000000  -2.838653   0.000000   0.000000
   23  AL 1  Y    0.000000   0.000000   0.000000  -2.736165   0.000000
   24  AL 1  Z    0.000000   0.000000   0.000000   0.000000  -2.736165
   25  AL 1 XX    0.000000   0.000000   0.000000   0.000000   0.000000
   26  AL 1 YY   -0.000025   0.000000   0.000000   0.000000   0.000000
   27  AL 1 ZZ    0.000025   0.000000   0.000000   0.000000   0.000000
   28  AL 1 XY    0.000000   0.000000   0.000000   0.000000   0.000000
   29  AL 1 XZ    0.000000   0.000000   0.000000   0.000000   0.000000
   30  AL 1 YZ    0.000000   0.000028   0.000000   0.000000   0.000000
   31  AL 1 XX    0.000000   0.000000   0.000000   0.000000   0.000000
   32  AL 1 YY   -0.013790   0.000000   0.000000   0.000000   0.000000
   33  AL 1 ZZ    0.013790   0.000000   0.000000   0.000000   0.000000
   34  AL 1 XY    0.000000   0.000000   0.000000   0.000000   0.000000
   35  AL 1 XZ    0.000000   0.000000   0.000000   0.000000   0.000000
   36  AL 1 YZ    0.000000   0.015924   0.000000   0.000000   0.000000
   37  AL 1 XX    0.000000   0.000000   0.000000   0.000000   0.000000
   38  AL 1 YY   -0.001571   0.000000   0.000000   0.000000   0.000000
   39  AL 1 ZZ    0.001571   0.000000   0.000000   0.000000   0.000000
   40  AL 1 XY    0.000000   0.000000   0.000000   0.000000   0.000000
   41  AL 1 XZ    0.000000   0.000000   0.000000   0.000000   0.000000
   42  AL 1 YZ    0.000000   0.001814   0.000000   0.000000   0.000000
   43  AL 1 XX    0.000000   0.000000   0.000000   0.000000   0.000000
   44  AL 1 YY   -0.864470   0.000000   0.000000   0.000000   0.000000
   45  AL 1 ZZ    0.864470   0.000000   0.000000   0.000000   0.000000
   46  AL 1 XY    0.000000   0.000000   0.000000   0.000000   0.000000
   47  AL 1 XZ    0.000000   0.000000   0.000000   0.000000   0.000000
   48  AL 1 YZ    0.000000   0.998204   0.000000   0.000000   0.000000
   49  AL 1 XXX   0.000000   0.000000   0.000005   0.000000   0.000000
   50  AL 1 YYY   0.000000   0.000000   0.000000   0.000002   0.000000
   51  AL 1 ZZZ   0.000000   0.000000   0.000000   0.000000   0.000002
   52  AL 1 XXY   0.000000   0.000000   0.000000  -0.000003   0.000000
   53  AL 1 XXZ   0.000000   0.000000   0.000000   0.000000  -0.000003
   54  AL 1 YYX   0.000000   0.000000  -0.000003   0.000000   0.000000
   55  AL 1 YYZ   0.000000   0.000000   0.000000   0.000000   0.000001
   56  AL 1 ZZX   0.000000   0.000000  -0.000003   0.000000   0.000000
   57  AL 1 ZZY   0.000000   0.000000   0.000000   0.000001   0.000000
   58  AL 1 XYZ   0.000000   0.000000   0.000000   0.000000   0.000000
   59  AL 1 XXX   0.000000   0.000000  -0.005596   0.000000   0.000000
   60  AL 1 YYY   0.000000   0.000000   0.000000   0.004664   0.000000
   61  AL 1 ZZZ   0.000000   0.000000   0.000000   0.000000   0.004664
   62  AL 1 XXY   0.000000   0.000000   0.000000  -0.008343   0.000000
   63  AL 1 XXZ   0.000000   0.000000   0.000000   0.000000  -0.008343
   64  AL 1 YYX   0.000000   0.000000   0.003754   0.000000   0.000000
   65  AL 1 YYZ   0.000000   0.000000   0.000000   0.000000   0.002086
   66  AL 1 ZZX   0.000000   0.000000   0.003754   0.000000   0.000000
   67  AL 1 ZZY   0.000000   0.000000   0.000000   0.002086   0.000000
   68  AL 1 XYZ   0.000000   0.000000   0.000000   0.000000   0.000000

                     21         22         23         24         25
                    0.8538     0.8554     0.8554     0.8601     0.8601
                     A          A          A          A          A   
    1  AL 1  S    0.008777   0.000000   0.000000   0.000000   0.000000
    2  AL 1  S    0.027245   0.000000   0.000000   0.000000   0.000000
    3  AL 1  S    0.000224   0.000000   0.000000   0.000000   0.000000
    4  AL 1  S    0.006418   0.000000   0.000000   0.000000   0.000000
    5  AL 1  S   -0.014006   0.000000   0.000000   0.000000   0.000000
    6  AL 1  S   -0.018968   0.000000   0.000000   0.000000   0.000000
    7  AL 1  X    0.000000   0.000000   0.000000   0.000000   0.000000
    8  AL 1  Y    0.000000   0.000000   0.000000   0.000000   0.000000
    9  AL 1  Z    0.000000   0.000000   0.000000   0.000000   0.000000
   10  AL 1  X    0.000000   0.000000   0.000000   0.000000   0.000000
   11  AL 1  Y    0.000000   0.000000   0.000000   0.000000   0.000000
   12  AL 1  Z    0.000000   0.000000   0.000000   0.000000   0.000000
   13  AL 1  X    0.000000   0.000000   0.000000   0.000000   0.000000
   14  AL 1  Y    0.000000   0.000000   0.000000   0.000000   0.000000
   15  AL 1  Z    0.000000   0.000000   0.000000   0.000000   0.000000
   16  AL 1  X    0.000000   0.000000   0.000000   0.000000   0.000000
   17  AL 1  Y    0.000000   0.000000   0.000000   0.000000   0.000000
   18  AL 1  Z    0.000000   0.000000   0.000000   0.000000   0.000000
   19  AL 1  X    0.000000   0.000000   0.000000   0.000000   0.000000
   20  AL 1  Y    0.000000   0.000000   0.000000   0.000000   0.000000
   21  AL 1  Z    0.000000   0.000000   0.000000   0.000000   0.000000
   22  AL 1  X    0.000000   0.000000   0.000000   0.000000   0.000000
   23  AL 1  Y    0.000000   0.000000   0.000000   0.000000   0.000000
   24  AL 1  Z    0.000000   0.000000   0.000000   0.000000   0.000000
   25  AL 1 XX    0.006192   0.000000   0.000000   0.000000   0.000000
   26  AL 1 YY   -0.003096   0.000000   0.000000   0.000000   0.005433
   27  AL 1 ZZ   -0.003096   0.000000   0.000000   0.000000  -0.005433
   28  AL 1 XY    0.000000   0.006213   0.000000   0.000000   0.000000
   29  AL 1 XZ    0.000000   0.000000   0.006213   0.000000   0.000000
   30  AL 1 YZ    0.000000   0.000000   0.000000   0.006273   0.000000
   31  AL 1 XX    0.062896   0.000000   0.000000   0.000000   0.000000
   32  AL 1 YY   -0.031448   0.000000   0.000000   0.000000   0.055757
   33  AL 1 ZZ   -0.031448   0.000000   0.000000   0.000000  -0.055757
   34  AL 1 XY    0.000000   0.063258   0.000000   0.000000   0.000000
   35  AL 1 XZ    0.000000   0.000000   0.063258   0.000000   0.000000
   36  AL 1 YZ    0.000000   0.000000   0.000000   0.064383   0.000000
   37  AL 1 XX    1.234516   0.000000   0.000000   0.000000   0.000000
   38  AL 1 YY   -0.617258   0.000000   0.000000   0.000000   1.069455
   39  AL 1 ZZ   -0.617258   0.000000   0.000000   0.000000  -1.069455
   40  AL 1 XY    0.000000   1.234730   0.000000   0.000000   0.000000
   41  AL 1 XZ    0.000000   0.000000   1.234730   0.000000   0.000000
   42  AL 1 YZ    0.000000   0.000000   0.000000   1.234900   0.000000
   43  AL 1 XX   -0.786091   0.000000   0.000000   0.000000   0.000000
   44  AL 1 YY    0.393046   0.000000   0.000000   0.000000  -0.653078
   45  AL 1 ZZ    0.393046   0.000000   0.000000   0.000000   0.653078
   46  AL 1 XY    0.000000  -0.778593   0.000000   0.000000   0.000000
   47  AL 1 XZ    0.000000   0.000000  -0.778593   0.000000   0.000000
   48  AL 1 YZ    0.000000   0.000000   0.000000  -0.754109   0.000000
   49  AL 1 XXX   0.000000   0.000000   0.000000   0.000000   0.000000
   50  AL 1 YYY   0.000000   0.000000   0.000000   0.000000   0.000000
   51  AL 1 ZZZ   0.000000   0.000000   0.000000   0.000000   0.000000
   52  AL 1 XXY   0.000000   0.000000   0.000000   0.000000   0.000000
   53  AL 1 XXZ   0.000000   0.000000   0.000000   0.000000   0.000000
   54  AL 1 YYX   0.000000   0.000000   0.000000   0.000000   0.000000
   55  AL 1 YYZ   0.000000   0.000000   0.000000   0.000000   0.000000
   56  AL 1 ZZX   0.000000   0.000000   0.000000   0.000000   0.000000
   57  AL 1 ZZY   0.000000   0.000000   0.000000   0.000000   0.000000
   58  AL 1 XYZ   0.000000   0.000000   0.000000   0.000000   0.000000
   59  AL 1 XXX   0.000000   0.000000   0.000000   0.000000   0.000000
   60  AL 1 YYY   0.000000   0.000000   0.000000   0.000000   0.000000
   61  AL 1 ZZZ   0.000000   0.000000   0.000000   0.000000   0.000000
   62  AL 1 XXY   0.000000   0.000000   0.000000   0.000000   0.000000
   63  AL 1 XXZ   0.000000   0.000000   0.000000   0.000000   0.000000
   64  AL 1 YYX   0.000000   0.000000   0.000000   0.000000   0.000000
   65  AL 1 YYZ   0.000000   0.000000   0.000000   0.000000   0.000000
   66  AL 1 ZZX   0.000000   0.000000   0.000000   0.000000   0.000000
   67  AL 1 ZZY   0.000000   0.000000   0.000000   0.000000   0.000000
   68  AL 1 XYZ   0.000000   0.000000   0.000000   0.000000   0.000000

                     26         27         28         29         30
                    0.9264     0.9268     0.9268     0.9276     0.9276
                     A          A          A          A          A   
    1  AL 1  S    0.000000   0.000000   0.000000   0.000000   0.000000
    2  AL 1  S    0.000000   0.000000   0.000000   0.000000   0.000000
    3  AL 1  S    0.000000   0.000000   0.000000   0.000000   0.000000
    4  AL 1  S    0.000000   0.000000   0.000000   0.000000   0.000000
    5  AL 1  S    0.000000   0.000000   0.000000   0.000000   0.000000
    6  AL 1  S    0.000000   0.000000   0.000000   0.000000   0.000000
    7  AL 1  X    0.006704   0.000000   0.000000   0.000000   0.000000
    8  AL 1  Y    0.000000   0.000000   0.008354   0.000000   0.000000
    9  AL 1  Z    0.000000   0.008354   0.000000   0.000000   0.000000
   10  AL 1  X    0.023255   0.000000   0.000000  -0.000000   0.000000
   11  AL 1  Y    0.000000   0.000000   0.019527   0.000000   0.000000
   12  AL 1  Z    0.000000   0.019527   0.000000   0.000000   0.000000
   13  AL 1  X    0.000061   0.000000   0.000000   0.000000   0.000000
   14  AL 1  Y    0.000000   0.000000   0.000035   0.000000   0.000000
   15  AL 1  Z    0.000000   0.000035   0.000000   0.000000   0.000000
   16  AL 1  X    0.000229   0.000000   0.000000   0.000000   0.000000
   17  AL 1  Y    0.000000   0.000000   0.000589   0.000000   0.000000
   18  AL 1  Z    0.000000   0.000589   0.000000   0.000000   0.000000
   19  AL 1  X   -0.017134   0.000000   0.000000   0.000000   0.000000
   20  AL 1  Y    0.000000   0.000000  -0.022170   0.000000   0.000000
   21  AL 1  Z    0.000000  -0.022170   0.000000   0.000000   0.000000
   22  AL 1  X   -0.012635   0.000000   0.000000   0.000000   0.000000
   23  AL 1  Y    0.000000   0.000000  -0.015729   0.000000   0.000000
   24  AL 1  Z    0.000000  -0.015729   0.000000   0.000000   0.000000
   25  AL 1 XX    0.000000   0.000000   0.000000   0.000000   0.000000
   26  AL 1 YY    0.000000   0.000000   0.000000   0.000000   0.000000
   27  AL 1 ZZ    0.000000   0.000000   0.000000   0.000000   0.000000
   28  AL 1 XY    0.000000   0.000000   0.000000   0.000000   0.000000
   29  AL 1 XZ    0.000000   0.000000   0.000000   0.000000   0.000000
   30  AL 1 YZ    0.000000   0.000000   0.000000   0.000000   0.000000
   31  AL 1 XX    0.000000   0.000000   0.000000   0.000000   0.000000
   32  AL 1 YY    0.000000   0.000000   0.000000   0.000000   0.000000
   33  AL 1 ZZ    0.000000   0.000000   0.000000   0.000000   0.000000
   34  AL 1 XY    0.000000   0.000000   0.000000   0.000000   0.000000
   35  AL 1 XZ    0.000000   0.000000   0.000000   0.000000   0.000000
   36  AL 1 YZ    0.000000   0.000000   0.000000   0.000000   0.000000
   37  AL 1 XX    0.000000   0.000000   0.000000   0.000000   0.000000
   38  AL 1 YY    0.000000   0.000000   0.000000   0.000000   0.000000
   39  AL 1 ZZ    0.000000   0.000000   0.000000   0.000000   0.000000
   40  AL 1 XY    0.000000   0.000000   0.000000   0.000000   0.000000
   41  AL 1 XZ    0.000000   0.000000   0.000000   0.000000   0.000000
   42  AL 1 YZ    0.000000   0.000000   0.000000   0.000000   0.000000
   43  AL 1 XX    0.000000   0.000000   0.000000   0.000000   0.000000
   44  AL 1 YY    0.000000   0.000000   0.000000   0.000000   0.000000
   45  AL 1 ZZ    0.000000   0.000000   0.000000   0.000000   0.000000
   46  AL 1 XY    0.000000   0.000000   0.000000   0.000000   0.000000
   47  AL 1 XZ    0.000000   0.000000   0.000000   0.000000   0.000000
   48  AL 1 YZ    0.000000   0.000000   0.000000   0.000000   0.000000
   49  AL 1 XXX   0.002103   0.000000   0.000000   0.000000   0.000000
   50  AL 1 YYY   0.000000   0.000000  -0.001290   0.000000   0.000000
   51  AL 1 ZZZ   0.000000  -0.001290   0.000000   0.000000   0.000000
   52  AL 1 XXY   0.000000   0.000000   0.002307   0.000000   0.000000
   53  AL 1 XXZ   0.000000   0.002307   0.000000   0.000000   0.000000
   54  AL 1 YYX  -0.001411   0.000000   0.000000   0.001830   0.000000
   55  AL 1 YYZ   0.000000  -0.000577   0.000000   0.000000   0.000000
   56  AL 1 ZZX  -0.001411   0.000000   0.000000  -0.001830   0.000000
   57  AL 1 ZZY   0.000000   0.000000  -0.000577   0.000000   0.000000
   58  AL 1 XYZ   0.000000   0.000000   0.000000   0.000000   0.002113
   59  AL 1 XXX   0.999947   0.000000   0.000000  -0.000000   0.000000
   60  AL 1 YYY   0.000000   0.000000  -0.612303   0.000000   0.000000
   61  AL 1 ZZZ   0.000000  -0.612303   0.000000   0.000000   0.000000
   62  AL 1 XXY   0.000000   0.000000   1.095321   0.000000   0.000000
   63  AL 1 XXZ   0.000000   1.095321   0.000000   0.000000   0.000000
   64  AL 1 YYX  -0.670785   0.000000   0.000000   0.865994   0.000000
   65  AL 1 YYZ   0.000000  -0.273830   0.000000   0.000000   0.000000
   66  AL 1 ZZX  -0.670785   0.000000   0.000000  -0.865994   0.000000
   67  AL 1 ZZY   0.000000   0.000000  -0.273830   0.000000   0.000000
   68  AL 1 XYZ   0.000000   0.000000   0.000000   0.000000   0.999963

                     31         32         33         34         35
                    0.9291     0.9291     1.3787     4.2192     4.2199
                     A          A          A          A          A   
    1  AL 1  S    0.000000   0.000000   1.963473   0.000000   0.000000
    2  AL 1  S    0.000000   0.000000   6.245442   0.000000   0.000000
    3  AL 1  S    0.000000   0.000000  -0.001318   0.000000   0.000000
    4  AL 1  S    0.000000   0.000000   2.135653   0.000000   0.000000
    5  AL 1  S    0.000000   0.000000  -4.184598   0.000000   0.000000
    6  AL 1  S    0.000000   0.000000  -4.351046   0.000000   0.000000
    7  AL 1  X    0.000000   0.000000   0.000000  -0.356930   0.000000
    8  AL 1  Y    0.000000   0.000000   0.000000   0.000000  -0.359582
    9  AL 1  Z    0.000000   0.000000   0.000000   0.000000   0.000000
   10  AL 1  X    0.000000   0.000000   0.000000   1.745928   0.000000
   11  AL 1  Y    0.000000   0.000000   0.000000   0.000000   1.733600
   12  AL 1  Z    0.000000   0.000000   0.000000   0.000000   0.000000
   13  AL 1  X    0.000000   0.000000   0.000000  -0.777831   0.000000
   14  AL 1  Y    0.000000   0.000000   0.000000   0.000000  -0.780065
   15  AL 1  Z    0.000000   0.000000   0.000000   0.000000   0.000000
   16  AL 1  X    0.000000   0.000000   0.000000   2.089707   0.000000
   17  AL 1  Y    0.000000   0.000000   0.000000   0.000000   2.088972
   18  AL 1  Z    0.000000   0.000000   0.000000   0.000000   0.000000
   19  AL 1  X    0.000000   0.000000   0.000000  -1.668471   0.000000
   20  AL 1  Y    0.000000   0.000000   0.000000   0.000000  -1.658033
   21  AL 1  Z    0.000000   0.000000   0.000000   0.000000   0.000000
   22  AL 1  X    0.000000   0.000000   0.000000  -0.988979   0.000000
   23  AL 1  Y    0.000000   0.000000   0.000000   0.000000  -0.981988
   24  AL 1  Z    0.000000   0.000000   0.000000   0.000000   0.000000
   25  AL 1 XX    0.000000   0.000000   0.000043   0.000000   0.000000
   26  AL 1 YY    0.000000   0.000000  -0.000022   0.000000   0.000000
   27  AL 1 ZZ    0.000000   0.000000  -0.000022   0.000000   0.000000
   28  AL 1 XY    0.000000   0.000000   0.000000   0.000000   0.000000
   29  AL 1 XZ    0.000000   0.000000   0.000000   0.000000   0.000000
   30  AL 1 YZ    0.000000   0.000000   0.000000   0.000000   0.000000
   31  AL 1 XX    0.000000   0.000000   0.000297   0.000000   0.000000
   32  AL 1 YY    0.000000   0.000000  -0.000148   0.000000   0.000000
   33  AL 1 ZZ    0.000000   0.000000  -0.000148   0.000000   0.000000
   34  AL 1 XY    0.000000   0.000000   0.000000   0.000000   0.000000
   35  AL 1 XZ    0.000000   0.000000   0.000000   0.000000   0.000000
   36  AL 1 YZ    0.000000   0.000000   0.000000   0.000000   0.000000
   37  AL 1 XX    0.000000   0.000000  -0.004581   0.000000   0.000000
   38  AL 1 YY    0.000000   0.000000   0.002291   0.000000   0.000000
   39  AL 1 ZZ    0.000000   0.000000   0.002291   0.000000   0.000000
   40  AL 1 XY    0.000000   0.000000   0.000000   0.000000   0.000000
   41  AL 1 XZ    0.000000   0.000000   0.000000   0.000000   0.000000
   42  AL 1 YZ    0.000000   0.000000   0.000000   0.000000   0.000000
   43  AL 1 XX    0.000000   0.000000  -0.004230   0.000000   0.000000
   44  AL 1 YY    0.000000   0.000000   0.002115   0.000000   0.000000
   45  AL 1 ZZ    0.000000   0.000000   0.002115   0.000000   0.000000
   46  AL 1 XY    0.000000   0.000000   0.000000   0.000000   0.000000
   47  AL 1 XZ    0.000000   0.000000   0.000000   0.000000   0.000000
   48  AL 1 YZ    0.000000   0.000000   0.000000   0.000000   0.000000
   49  AL 1 XXX   0.000000   0.000000   0.000000  -0.000120   0.000000
   50  AL 1 YYY   0.000000  -0.001681   0.000000   0.000000   0.000060
   51  AL 1 ZZZ  -0.001681   0.000000   0.000000   0.000000   0.000000
   52  AL 1 XXY   0.000000   0.000000   0.000000   0.000000  -0.000107
   53  AL 1 XXZ   0.000000   0.000000   0.000000   0.000000   0.000000
   54  AL 1 YYX   0.000000   0.000000   0.000000   0.000081   0.000000
   55  AL 1 YYZ   0.002255   0.000000   0.000000   0.000000   0.000000
   56  AL 1 ZZX   0.000000   0.000000   0.000000   0.000081   0.000000
   57  AL 1 ZZY   0.000000   0.002255   0.000000   0.000000   0.000027
   58  AL 1 XYZ   0.000000   0.000000   0.000000   0.000000   0.000000
   59  AL 1 XXX   0.000000   0.000000   0.000000   0.000201   0.000000
   60  AL 1 YYY   0.000000  -0.790540   0.000000   0.000000  -0.000098
   61  AL 1 ZZZ  -0.790540   0.000000   0.000000   0.000000   0.000000
   62  AL 1 XXY   0.000000   0.000000   0.000000   0.000000   0.000175
   63  AL 1 XXZ   0.000000   0.000000   0.000000   0.000000   0.000000
   64  AL 1 YYX   0.000000   0.000000   0.000000  -0.000135   0.000000
   65  AL 1 YYZ   1.060621   0.000000   0.000000   0.000000   0.000000
   66  AL 1 ZZX   0.000000   0.000000   0.000000  -0.000135   0.000000
   67  AL 1 ZZY   0.000000   1.060621   0.000000   0.000000  -0.000044
   68  AL 1 XYZ   0.000000   0.000000   0.000000   0.000000   0.000000

                     36         37         38         39         40
                    4.2199     5.2267     5.2267     5.2320     5.2320
                     A          A          A          A          A   
    1  AL 1  S    0.000000   0.000000   0.000000   0.000000   0.000000
    2  AL 1  S    0.000000   0.000000   0.000000   0.000000   0.000000
    3  AL 1  S    0.000000   0.000000   0.000000   0.000000   0.000000
    4  AL 1  S    0.000000   0.000000   0.000000   0.000000   0.000000
    5  AL 1  S    0.000000   0.000000   0.000000   0.000000   0.000000
    6  AL 1  S    0.000000   0.000000   0.000000   0.000000   0.000000
    7  AL 1  X    0.000000   0.000000   0.000000   0.000000   0.000000
    8  AL 1  Y    0.000000   0.000000   0.000000   0.000000   0.000000
    9  AL 1  Z   -0.359582   0.000000   0.000000   0.000000   0.000000
   10  AL 1  X    0.000000   0.000000   0.000000   0.000000   0.000000
   11  AL 1  Y    0.000000   0.000000   0.000000   0.000000   0.000000
   12  AL 1  Z    1.733600   0.000000   0.000000   0.000000   0.000000
   13  AL 1  X    0.000000   0.000000   0.000000   0.000000   0.000000
   14  AL 1  Y    0.000000   0.000000   0.000000   0.000000   0.000000
   15  AL 1  Z   -0.780065   0.000000   0.000000   0.000000   0.000000
   16  AL 1  X    0.000000   0.000000   0.000000   0.000000   0.000000
   17  AL 1  Y    0.000000   0.000000   0.000000   0.000000   0.000000
   18  AL 1  Z    2.088972   0.000000   0.000000   0.000000   0.000000
   19  AL 1  X    0.000000   0.000000   0.000000   0.000000   0.000000
   20  AL 1  Y    0.000000   0.000000   0.000000   0.000000   0.000000
   21  AL 1  Z   -1.658033   0.000000   0.000000   0.000000   0.000000
   22  AL 1  X    0.000000   0.000000   0.000000   0.000000   0.000000
   23  AL 1  Y    0.000000   0.000000   0.000000   0.000000   0.000000
   24  AL 1  Z   -0.981988   0.000000   0.000000   0.000000   0.000000
   25  AL 1 XX    0.000000  -0.000000   0.000000   0.000000   0.000000
   26  AL 1 YY    0.000000  -0.011457   0.000000   0.000000   0.000000
   27  AL 1 ZZ    0.000000   0.011457   0.000000   0.000000   0.000000
   28  AL 1 XY    0.000000   0.000000   0.000000   0.000000   0.013524
   29  AL 1 XZ    0.000000   0.000000   0.000000   0.013524   0.000000
   30  AL 1 YZ    0.000000   0.000000   0.013229   0.000000   0.000000
   31  AL 1 XX    0.000000  -0.000000   0.000000   0.000000   0.000000
   32  AL 1 YY    0.000000  -0.877488   0.000000   0.000000   0.000000
   33  AL 1 ZZ    0.000000   0.877488   0.000000   0.000000   0.000000
   34  AL 1 XY    0.000000   0.000000   0.000000   0.000000   1.013132
   35  AL 1 XZ    0.000000   0.000000   0.000000   1.013132   0.000000
   36  AL 1 YZ    0.000000   0.000000   1.013236   0.000000   0.000000
   37  AL 1 XX    0.000000   0.000000   0.000000   0.000000   0.000000
   38  AL 1 YY    0.000000   0.302606   0.000000   0.000000   0.000000
   39  AL 1 ZZ    0.000000  -0.302606   0.000000   0.000000   0.000000
   40  AL 1 XY    0.000000   0.000000   0.000000   0.000000  -0.348454
   41  AL 1 XZ    0.000000   0.000000   0.000000  -0.348454   0.000000
   42  AL 1 YZ    0.000000   0.000000  -0.349420   0.000000   0.000000
   43  AL 1 XX    0.000000  -0.000000   0.000000   0.000000   0.000000
   44  AL 1 YY    0.000000  -0.138306   0.000000   0.000000   0.000000
   45  AL 1 ZZ    0.000000   0.138306   0.000000   0.000000   0.000000
   46  AL 1 XY    0.000000   0.000000   0.000000   0.000000   0.160133
   47  AL 1 XZ    0.000000   0.000000   0.000000   0.160133   0.000000
   48  AL 1 YZ    0.000000   0.000000   0.159702   0.000000   0.000000
   49  AL 1 XXX   0.000000   0.000000   0.000000   0.000000   0.000000
   50  AL 1 YYY   0.000000   0.000000   0.000000   0.000000   0.000000
   51  AL 1 ZZZ   0.000060   0.000000   0.000000   0.000000   0.000000
   52  AL 1 XXY   0.000000   0.000000   0.000000   0.000000   0.000000
   53  AL 1 XXZ  -0.000107   0.000000   0.000000   0.000000   0.000000
   54  AL 1 YYX   0.000000   0.000000   0.000000   0.000000   0.000000
   55  AL 1 YYZ   0.000027   0.000000   0.000000   0.000000   0.000000
   56  AL 1 ZZX   0.000000   0.000000   0.000000   0.000000   0.000000
   57  AL 1 ZZY   0.000000   0.000000   0.000000   0.000000   0.000000
   58  AL 1 XYZ   0.000000   0.000000   0.000000   0.000000   0.000000
   59  AL 1 XXX   0.000000   0.000000   0.000000   0.000000   0.000000
   60  AL 1 YYY   0.000000   0.000000   0.000000   0.000000   0.000000
   61  AL 1 ZZZ  -0.000098   0.000000   0.000000   0.000000   0.000000
   62  AL 1 XXY   0.000000   0.000000   0.000000   0.000000   0.000000
   63  AL 1 XXZ   0.000175   0.000000   0.000000   0.000000   0.000000
   64  AL 1 YYX   0.000000   0.000000   0.000000   0.000000   0.000000
   65  AL 1 YYZ  -0.000044   0.000000   0.000000   0.000000   0.000000
   66  AL 1 ZZX   0.000000   0.000000   0.000000   0.000000   0.000000
   67  AL 1 ZZY   0.000000   0.000000   0.000000   0.000000   0.000000
   68  AL 1 XYZ   0.000000   0.000000   0.000000   0.000000   0.000000

                     41         42         43         44         45
                    5.2338     8.6507    19.1615    19.1616    19.1616
                     A          A          A          A          A   
    1  AL 1  S    0.005526  -3.565999   0.000000   0.000000   0.000000
    2  AL 1  S   -0.008653   2.664023   0.000000   0.000000   0.000000
    3  AL 1  S    0.001615  -0.954350   0.000000   0.000000   0.000000
    4  AL 1  S   -0.012324   6.334721   0.000000   0.000000   0.000000
    5  AL 1  S    0.006666  -2.306062   0.000000   0.000000   0.000000
    6  AL 1  S    0.005957  -1.793343   0.000000   0.000000   0.000000
    7  AL 1  X    0.000000   0.000000   4.729722   0.000000   0.000000
    8  AL 1  Y    0.000000   0.000000   0.000000   0.000000   4.730157
    9  AL 1  Z    0.000000   0.000000   0.000000   4.730157   0.000000
   10  AL 1  X    0.000000   0.000000   0.870561   0.000000   0.000000
   11  AL 1  Y    0.000000   0.000000   0.000000   0.000000   0.869790
   12  AL 1  Z    0.000000   0.000000   0.000000   0.869790   0.000000
   13  AL 1  X    0.000000   0.000000  -4.060919   0.000000   0.000000
   14  AL 1  Y    0.000000   0.000000   0.000000   0.000000  -4.060528
   15  AL 1  Z    0.000000   0.000000   0.000000  -4.060528   0.000000
   16  AL 1  X    0.000000   0.000000  -0.554543   0.000000   0.000000
   17  AL 1  Y    0.000000   0.000000   0.000000   0.000000  -0.555683
   18  AL 1  Z    0.000000   0.000000   0.000000  -0.555683   0.000000
   19  AL 1  X    0.000000   0.000000  -0.992368   0.000000   0.000000
   20  AL 1  Y    0.000000   0.000000   0.000000   0.000000  -0.991608
   21  AL 1  Z    0.000000   0.000000   0.000000  -0.991608   0.000000
   22  AL 1  X    0.000000   0.000000  -0.491374   0.000000   0.000000
   23  AL 1  Y    0.000000   0.000000   0.000000   0.000000  -0.490935
   24  AL 1  Z    0.000000   0.000000   0.000000  -0.490935   0.000000
   25  AL 1 XX    0.013623   0.000035   0.000000   0.000000   0.000000
   26  AL 1 YY   -0.006811  -0.000018   0.000000   0.000000   0.000000
   27  AL 1 ZZ   -0.006811  -0.000018   0.000000   0.000000   0.000000
   28  AL 1 XY    0.000000   0.000000   0.000000   0.000000   0.000000
   29  AL 1 XZ    0.000000   0.000000   0.000000   0.000000   0.000000
   30  AL 1 YZ    0.000000   0.000000   0.000000   0.000000   0.000000
   31  AL 1 XX    1.013095   0.001745   0.000000   0.000000   0.000000
   32  AL 1 YY   -0.506548  -0.000872   0.000000   0.000000   0.000000
   33  AL 1 ZZ   -0.506548  -0.000872   0.000000   0.000000   0.000000
   34  AL 1 XY    0.000000   0.000000   0.000000   0.000000   0.000000
   35  AL 1 XZ    0.000000   0.000000   0.000000   0.000000   0.000000
   36  AL 1 YZ    0.000000   0.000000   0.000000   0.000000   0.000000
   37  AL 1 XX   -0.348130  -0.000309   0.000000   0.000000   0.000000
   38  AL 1 YY    0.174065   0.000154   0.000000   0.000000   0.000000
   39  AL 1 ZZ    0.174065   0.000154   0.000000   0.000000   0.000000
   40  AL 1 XY    0.000000   0.000000   0.000000   0.000000   0.000000
   41  AL 1 XZ    0.000000   0.000000   0.000000   0.000000   0.000000
   42  AL 1 YZ    0.000000   0.000000   0.000000   0.000000   0.000000
   43  AL 1 XX    0.160258   0.000388   0.000000   0.000000   0.000000
   44  AL 1 YY   -0.080129  -0.000194   0.000000   0.000000   0.000000
   45  AL 1 ZZ   -0.080129  -0.000194   0.000000   0.000000   0.000000
   46  AL 1 XY    0.000000   0.000000   0.000000   0.000000   0.000000
   47  AL 1 XZ    0.000000   0.000000   0.000000   0.000000   0.000000
   48  AL 1 YZ    0.000000   0.000000   0.000000   0.000000   0.000000
   49  AL 1 XXX   0.000000   0.000000   0.007165   0.000000   0.000000
   50  AL 1 YYY   0.000000   0.000000   0.000000   0.000000  -0.003590
   51  AL 1 ZZZ   0.000000   0.000000   0.000000  -0.003590   0.000000
   52  AL 1 XXY   0.000000   0.000000   0.000000   0.000000   0.006421
   53  AL 1 XXZ   0.000000   0.000000   0.000000   0.006421   0.000000
   54  AL 1 YYX   0.000000   0.000000  -0.004806   0.000000   0.000000
   55  AL 1 YYZ   0.000000   0.000000   0.000000  -0.001605   0.000000
   56  AL 1 ZZX   0.000000   0.000000  -0.004806   0.000000   0.000000
   57  AL 1 ZZY   0.000000   0.000000   0.000000   0.000000  -0.001605
   58  AL 1 XYZ   0.000000   0.000000   0.000000   0.000000   0.000000
   59  AL 1 XXX   0.000000   0.000000  -0.000165   0.000000   0.000000
   60  AL 1 YYY   0.000000   0.000000   0.000000   0.000000   0.000082
   61  AL 1 ZZZ   0.000000   0.000000   0.000000   0.000082   0.000000
   62  AL 1 XXY   0.000000   0.000000   0.000000   0.000000  -0.000147
   63  AL 1 XXZ   0.000000   0.000000   0.000000  -0.000147   0.000000
   64  AL 1 YYX   0.000000   0.000000   0.000110   0.000000   0.000000
   65  AL 1 YYZ   0.000000   0.000000   0.000000   0.000037   0.000000
   66  AL 1 ZZX   0.000000   0.000000   0.000110   0.000000   0.000000
   67  AL 1 ZZY   0.000000   0.000000   0.000000   0.000000   0.000037
   68  AL 1 XYZ   0.000000   0.000000   0.000000   0.000000   0.000000

                     46         47         48         49         50
                   19.4876    19.4876    19.4908    19.4908    19.4928
                     A          A          A          A          A   
    1  AL 1  S    0.000000   0.000000   0.000000   0.000000   0.000000
    2  AL 1  S    0.000000   0.000000   0.000000   0.000000   0.000000
    3  AL 1  S    0.000000   0.000000   0.000000   0.000000   0.000000
    4  AL 1  S    0.000000   0.000000   0.000000   0.000000   0.000000
    5  AL 1  S    0.000000   0.000000   0.000000   0.000000   0.000000
    6  AL 1  S    0.000000   0.000000   0.000000   0.000000   0.000000
    7  AL 1  X    0.000000   0.000000   0.000000  -0.000000   0.000000
    8  AL 1  Y    0.000000  -0.000000   0.000000   0.000000  -0.027612
    9  AL 1  Z   -0.000000   0.000000   0.000000   0.000000   0.000000
   10  AL 1  X    0.000000   0.000000   0.000000   0.000000   0.000000
   11  AL 1  Y    0.000000  -0.000000   0.000000   0.000000  -0.004959
   12  AL 1  Z   -0.000000   0.000000   0.000000   0.000000   0.000000
   13  AL 1  X    0.000000   0.000000   0.000000   0.000000   0.000000
   14  AL 1  Y    0.000000   0.000000   0.000000   0.000000   0.023723
   15  AL 1  Z    0.000000   0.000000   0.000000   0.000000   0.000000
   16  AL 1  X    0.000000   0.000000   0.000000   0.000000   0.000000
   17  AL 1  Y    0.000000   0.000000   0.000000   0.000000   0.003460
   18  AL 1  Z    0.000000   0.000000   0.000000   0.000000   0.000000
   19  AL 1  X    0.000000   0.000000   0.000000   0.000000   0.000000
   20  AL 1  Y    0.000000   0.000000   0.000000   0.000000   0.005688
   21  AL 1  Z    0.000000   0.000000   0.000000   0.000000   0.000000
   22  AL 1  X    0.000000   0.000000   0.000000   0.000000   0.000000
   23  AL 1  Y    0.000000   0.000000   0.000000   0.000000   0.002803
   24  AL 1  Z    0.000000   0.000000   0.000000   0.000000   0.000000
   25  AL 1 XX    0.000000   0.000000   0.000000   0.000000   0.000000
   26  AL 1 YY    0.000000   0.000000   0.000000   0.000000   0.000000
   27  AL 1 ZZ    0.000000   0.000000   0.000000   0.000000   0.000000
   28  AL 1 XY    0.000000   0.000000   0.000000   0.000000   0.000000
   29  AL 1 XZ    0.000000   0.000000   0.000000   0.000000   0.000000
   30  AL 1 YZ    0.000000   0.000000   0.000000   0.000000   0.000000
   31  AL 1 XX    0.000000   0.000000   0.000000   0.000000   0.000000
   32  AL 1 YY    0.000000   0.000000   0.000000   0.000000   0.000000
   33  AL 1 ZZ    0.000000   0.000000   0.000000   0.000000   0.000000
   34  AL 1 XY    0.000000   0.000000   0.000000   0.000000   0.000000
   35  AL 1 XZ    0.000000   0.000000   0.000000   0.000000   0.000000
   36  AL 1 YZ    0.000000   0.000000   0.000000   0.000000   0.000000
   37  AL 1 XX    0.000000   0.000000   0.000000   0.000000   0.000000
   38  AL 1 YY    0.000000   0.000000   0.000000   0.000000   0.000000
   39  AL 1 ZZ    0.000000   0.000000   0.000000   0.000000   0.000000
   40  AL 1 XY    0.000000   0.000000   0.000000   0.000000   0.000000
   41  AL 1 XZ    0.000000   0.000000   0.000000   0.000000   0.000000
   42  AL 1 YZ    0.000000   0.000000   0.000000   0.000000   0.000000
   43  AL 1 XX    0.000000   0.000000   0.000000   0.000000   0.000000
   44  AL 1 YY    0.000000   0.000000   0.000000   0.000000   0.000000
   45  AL 1 ZZ    0.000000   0.000000   0.000000   0.000000   0.000000
   46  AL 1 XY    0.000000   0.000000   0.000000   0.000000   0.000000
   47  AL 1 XZ    0.000000   0.000000   0.000000   0.000000   0.000000
   48  AL 1 YZ    0.000000   0.000000   0.000000   0.000000   0.000000
   49  AL 1 XXX   0.000000   0.000000   0.000000  -0.000000   0.000000
   50  AL 1 YYY   0.000000  -0.790673   0.000000   0.000000  -0.612442
   51  AL 1 ZZZ  -0.790673   0.000000   0.000000   0.000000   0.000000
   52  AL 1 XXY   0.000000  -0.000000   0.000000   0.000000   1.095569
   53  AL 1 XXZ  -0.000000   0.000000   0.000000   0.000000   0.000000
   54  AL 1 YYX   0.000000   0.000000   0.000000   0.866139   0.000000
   55  AL 1 YYZ   1.060799   0.000000   0.000000   0.000000   0.000000
   56  AL 1 ZZX   0.000000   0.000000   0.000000  -0.866139   0.000000
   57  AL 1 ZZY   0.000000   1.060799   0.000000   0.000000  -0.273892
   58  AL 1 XYZ   0.000000   0.000000   1.000131   0.000000   0.000000
   59  AL 1 XXX   0.000000   0.000000   0.000000   0.000000   0.000000
   60  AL 1 YYY   0.000000   0.014569   0.000000   0.000000   0.011272
   61  AL 1 ZZZ   0.014569   0.000000   0.000000   0.000000   0.000000
   62  AL 1 XXY   0.000000   0.000000   0.000000   0.000000  -0.020164
   63  AL 1 XXZ   0.000000   0.000000   0.000000   0.000000   0.000000
   64  AL 1 YYX   0.000000   0.000000   0.000000  -0.015948   0.000000
   65  AL 1 YYZ  -0.019546   0.000000   0.000000   0.000000   0.000000
   66  AL 1 ZZX   0.000000   0.000000   0.000000   0.015948   0.000000
   67  AL 1 ZZY   0.000000  -0.019546   0.000000   0.000000   0.005041
   68  AL 1 XYZ   0.000000   0.000000  -0.018415   0.000000   0.000000

                     51         52         53         54         55
                   19.4928    19.4934    22.9976    22.9978    22.9978
                     A          A          A          A          A   
    1  AL 1  S    0.000000   0.000000  -0.000579   0.000000   0.000000
    2  AL 1  S    0.000000   0.000000   0.000142   0.000000   0.000000
    3  AL 1  S    0.000000   0.000000   0.000096   0.000000   0.000000
    4  AL 1  S    0.000000   0.000000   0.000433   0.000000   0.000000
    5  AL 1  S    0.000000   0.000000   0.000110   0.000000   0.000000
    6  AL 1  S    0.000000   0.000000  -0.000169   0.000000   0.000000
    7  AL 1  X    0.000000  -0.033747   0.000000   0.000000   0.000000
    8  AL 1  Y    0.000000   0.000000   0.000000   0.000000   0.000000
    9  AL 1  Z   -0.027612   0.000000   0.000000   0.000000   0.000000
   10  AL 1  X    0.000000  -0.006084   0.000000   0.000000   0.000000
   11  AL 1  Y    0.000000   0.000000   0.000000   0.000000   0.000000
   12  AL 1  Z   -0.004959   0.000000   0.000000   0.000000   0.000000
   13  AL 1  X    0.000000   0.029000   0.000000   0.000000   0.000000
   14  AL 1  Y    0.000000   0.000000   0.000000   0.000000   0.000000
   15  AL 1  Z    0.023723   0.000000   0.000000   0.000000   0.000000
   16  AL 1  X    0.000000   0.004222   0.000000   0.000000   0.000000
   17  AL 1  Y    0.000000   0.000000   0.000000   0.000000   0.000000
   18  AL 1  Z    0.003460   0.000000   0.000000   0.000000   0.000000
   19  AL 1  X    0.000000   0.006957   0.000000   0.000000   0.000000
   20  AL 1  Y    0.000000   0.000000   0.000000   0.000000   0.000000
   21  AL 1  Z    0.005688   0.000000   0.000000   0.000000   0.000000
   22  AL 1  X    0.000000   0.003429   0.000000   0.000000   0.000000
   23  AL 1  Y    0.000000   0.000000   0.000000   0.000000   0.000000
   24  AL 1  Z    0.002803   0.000000   0.000000   0.000000   0.000000
   25  AL 1 XX    0.000000   0.000000   1.202989   0.000000   0.000000
   26  AL 1 YY    0.000000   0.000000  -0.601495   0.000000   0.000000
   27  AL 1 ZZ    0.000000   0.000000  -0.601495   0.000000   0.000000
   28  AL 1 XY    0.000000   0.000000   0.000000   1.202990   0.000000
   29  AL 1 XZ    0.000000   0.000000   0.000000   0.000000   1.202990
   30  AL 1 YZ    0.000000   0.000000   0.000000   0.000000   0.000000
   31  AL 1 XX    0.000000   0.000000  -0.694935   0.000000   0.000000
   32  AL 1 YY    0.000000   0.000000   0.347468   0.000000   0.000000
   33  AL 1 ZZ    0.000000   0.000000   0.347468   0.000000   0.000000
   34  AL 1 XY    0.000000   0.000000   0.000000  -0.694854   0.000000
   35  AL 1 XZ    0.000000   0.000000   0.000000   0.000000  -0.694854
   36  AL 1 YZ    0.000000   0.000000   0.000000   0.000000   0.000000
   37  AL 1 XX    0.000000   0.000000   0.124937   0.000000   0.000000
   38  AL 1 YY    0.000000   0.000000  -0.062469   0.000000   0.000000
   39  AL 1 ZZ    0.000000   0.000000  -0.062469   0.000000   0.000000
   40  AL 1 XY    0.000000   0.000000   0.000000   0.124893   0.000000
   41  AL 1 XZ    0.000000   0.000000   0.000000   0.000000   0.124893
   42  AL 1 YZ    0.000000   0.000000   0.000000   0.000000   0.000000
   43  AL 1 XX    0.000000   0.000000  -0.056275   0.000000   0.000000
   44  AL 1 YY    0.000000   0.000000   0.028137   0.000000   0.000000
   45  AL 1 ZZ    0.000000   0.000000   0.028137   0.000000   0.000000
   46  AL 1 XY    0.000000   0.000000   0.000000  -0.056254   0.000000
   47  AL 1 XZ    0.000000   0.000000   0.000000   0.000000  -0.056254
   48  AL 1 YZ    0.000000   0.000000   0.000000   0.000000   0.000000
   49  AL 1 XXX   0.000000   1.000105   0.000000   0.000000   0.000000
   50  AL 1 YYY   0.000000   0.000000   0.000000   0.000000   0.000000
   51  AL 1 ZZZ  -0.612442   0.000000   0.000000   0.000000   0.000000
   52  AL 1 XXY   0.000000   0.000000   0.000000   0.000000   0.000000
   53  AL 1 XXZ   1.095569   0.000000   0.000000   0.000000   0.000000
   54  AL 1 YYX   0.000000  -0.670891   0.000000   0.000000   0.000000
   55  AL 1 YYZ  -0.273892   0.000000   0.000000   0.000000   0.000000
   56  AL 1 ZZX   0.000000  -0.670891   0.000000   0.000000   0.000000
   57  AL 1 ZZY   0.000000   0.000000   0.000000   0.000000   0.000000
   58  AL 1 XYZ   0.000000   0.000000   0.000000   0.000000   0.000000
   59  AL 1 XXX   0.000000  -0.018404   0.000000   0.000000   0.000000
   60  AL 1 YYY   0.000000   0.000000   0.000000   0.000000   0.000000
   61  AL 1 ZZZ   0.011272   0.000000   0.000000   0.000000   0.000000
   62  AL 1 XXY   0.000000   0.000000   0.000000   0.000000   0.000000
   63  AL 1 XXZ  -0.020164   0.000000   0.000000   0.000000   0.000000
   64  AL 1 YYX   0.000000   0.012346   0.000000   0.000000   0.000000
   65  AL 1 YYZ   0.005041   0.000000   0.000000   0.000000   0.000000
   66  AL 1 ZZX   0.000000   0.012346   0.000000   0.000000   0.000000
   67  AL 1 ZZY   0.000000   0.000000   0.000000   0.000000   0.000000
   68  AL 1 XYZ   0.000000   0.000000   0.000000   0.000000   0.000000

                     56         57         58
                   22.9987    22.9987    50.9734
                     A          A          A   
    1  AL 1  S   -0.000000   0.000000  -6.373122
    2  AL 1  S    0.000000   0.000000   1.077234
    3  AL 1  S    0.000000   0.000000   1.039133
    4  AL 1  S    0.000000   0.000000   6.457732
    5  AL 1  S    0.000000   0.000000  -0.692808
    6  AL 1  S    0.000000   0.000000  -0.734815
    7  AL 1  X    0.000000   0.000000   0.000000
    8  AL 1  Y    0.000000   0.000000   0.000000
    9  AL 1  Z    0.000000   0.000000   0.000000
   10  AL 1  X    0.000000   0.000000   0.000000
   11  AL 1  Y    0.000000   0.000000   0.000000
   12  AL 1  Z    0.000000   0.000000   0.000000
   13  AL 1  X    0.000000   0.000000   0.000000
   14  AL 1  Y    0.000000   0.000000   0.000000
   15  AL 1  Z    0.000000   0.000000   0.000000
   16  AL 1  X    0.000000   0.000000   0.000000
   17  AL 1  Y    0.000000   0.000000   0.000000
   18  AL 1  Z    0.000000   0.000000   0.000000
   19  AL 1  X    0.000000   0.000000   0.000000
   20  AL 1  Y    0.000000   0.000000   0.000000
   21  AL 1  Z    0.000000   0.000000   0.000000
   22  AL 1  X    0.000000   0.000000   0.000000
   23  AL 1  Y    0.000000   0.000000   0.000000
   24  AL 1  Z    0.000000   0.000000   0.000000
   25  AL 1 XX   -0.000000   0.000000  -0.000100
   26  AL 1 YY   -1.041823   0.000000   0.000050
   27  AL 1 ZZ    1.041823   0.000000   0.000050
   28  AL 1 XY    0.000000   0.000000   0.000000
   29  AL 1 XZ    0.000000   0.000000   0.000000
   30  AL 1 YZ    0.000000   1.202993   0.000000
   31  AL 1 XX    0.000000   0.000000   0.000074
   32  AL 1 YY    0.601552   0.000000  -0.000037
   33  AL 1 ZZ   -0.601552   0.000000  -0.000037
   34  AL 1 XY    0.000000   0.000000   0.000000
   35  AL 1 XZ    0.000000   0.000000   0.000000
   36  AL 1 YZ    0.000000  -0.694612   0.000000
   37  AL 1 XX   -0.000000   0.000000  -0.000023
   38  AL 1 YY   -0.108044   0.000000   0.000012
   39  AL 1 ZZ    0.108044   0.000000   0.000012
   40  AL 1 XY    0.000000   0.000000   0.000000
   41  AL 1 XZ    0.000000   0.000000   0.000000
   42  AL 1 YZ    0.000000   0.124759   0.000000
   43  AL 1 XX    0.000000   0.000000   0.000016
   44  AL 1 YY    0.048665   0.000000  -0.000008
   45  AL 1 ZZ   -0.048665   0.000000  -0.000008
   46  AL 1 XY    0.000000   0.000000   0.000000
   47  AL 1 XZ    0.000000   0.000000   0.000000
   48  AL 1 YZ    0.000000  -0.056194   0.000000
   49  AL 1 XXX   0.000000   0.000000   0.000000
   50  AL 1 YYY   0.000000   0.000000   0.000000
   51  AL 1 ZZZ   0.000000   0.000000   0.000000
   52  AL 1 XXY   0.000000   0.000000   0.000000
   53  AL 1 XXZ   0.000000   0.000000   0.000000
   54  AL 1 YYX   0.000000   0.000000   0.000000
   55  AL 1 YYZ   0.000000   0.000000   0.000000
   56  AL 1 ZZX   0.000000   0.000000   0.000000
   57  AL 1 ZZY   0.000000   0.000000   0.000000
   58  AL 1 XYZ   0.000000   0.000000   0.000000
   59  AL 1 XXX   0.000000   0.000000   0.000000
   60  AL 1 YYY   0.000000   0.000000   0.000000
   61  AL 1 ZZZ   0.000000   0.000000   0.000000
   62  AL 1 XXY   0.000000   0.000000   0.000000
   63  AL 1 XXZ   0.000000   0.000000   0.000000
   64  AL 1 YYX   0.000000   0.000000   0.000000
   65  AL 1 YYZ   0.000000   0.000000   0.000000
   66  AL 1 ZZX   0.000000   0.000000   0.000000
   67  AL 1 ZZY   0.000000   0.000000   0.000000
   68  AL 1 XYZ   0.000000   0.000000   0.000000
 ...... END OF ROHF CALCULATION ......
 STEP CPU TIME =     0.06 TOTAL CPU TIME =        0.4 (    0.0 MIN)
 TOTAL WALL CLOCK TIME=        0.7 SECONDS, CPU UTILIZATION IS  55.88%

     ----------------------------------------------------------------
     PROPERTY VALUES FOR THE ROHF  SELF-CONSISTENT FIELD WAVEFUNCTION
     ----------------------------------------------------------------

          -----------------
          ENERGY COMPONENTS
          -----------------

         WAVEFUNCTION NORMALIZATION =       1.0000000000

                ONE ELECTRON ENERGY =    -131.5196538823
                TWO ELECTRON ENERGY =      50.5263041787
           NUCLEAR REPULSION ENERGY =       0.0000000000
                                      ------------------
                       TOTAL ENERGY =     -80.9933497037

 ELECTRON-ELECTRON POTENTIAL ENERGY =      50.5263041787
  NUCLEUS-ELECTRON POTENTIAL ENERGY =    -194.4126557156
   NUCLEUS-NUCLEUS POTENTIAL ENERGY =       0.0000000000
                                      ------------------
             TOTAL POTENTIAL ENERGY =    -143.8863515369
               TOTAL KINETIC ENERGY =      62.8930018332
                 VIRIAL RATIO (V/T) =       2.2877958969

          ---------------------------------------
          MULLIKEN AND LOWDIN POPULATION ANALYSES
          ---------------------------------------

     ATOMIC MULLIKEN POPULATION IN EACH MOLECULAR ORBITAL

                      1          2          3          4          5

                  2.000000   2.000000   2.000000   2.000000   2.000000

    1             2.000000   2.000000   2.000000   2.000000   2.000000

                      6

                  1.000000

    1             1.000000

          MULLIKEN SPHERICAL HARMONIC POPULATIONS
       ATOM           S       P       D      F      G      H      I    TOTAL
    1 AL            2.00    4.00    0.00   0.00   0.00   0.00   0.00    6.00

          MULLIKEN SPHERICAL HARMONIC POPULATIONS
       ATOM           S       P       D      F      G      H      I    TOTAL
    1 AL            2.00    3.00    0.00   0.00   0.00   0.00   0.00    5.00

     ATOMIC SPIN POPULATION (ALPHA MINUS BETA)
       ATOM         MULL.POP.                    LOW.POP.
    1 AL            1.000000                     1.000000

               ----- POPULATIONS IN EACH AO -----
                             MULLIKEN      LOWDIN
              1  AL 1  S      1.99999     0.40803
              2  AL 1  S      2.00065     0.47571
              3  AL 1  S      0.00000     0.11779
              4  AL 1  S      0.00001     0.35918
              5  AL 1  S     -0.00005     0.28819
              6  AL 1  S     -0.00072     0.33994
              7  AL 1  X      2.00383     0.81912
              8  AL 1  Y      1.99806     0.81676
              9  AL 1  Z      1.99806     0.81676
             10  AL 1  X      1.00064     0.33557
             11  AL 1  Y     -0.00000     0.00199
             12  AL 1  Z     -0.00000     0.00199
             13  AL 1  X      0.00057     0.48291
             14  AL 1  Y     -0.00027     0.47741
             15  AL 1  Z     -0.00027     0.47741
             16  AL 1  X     -0.00298     0.26473
             17  AL 1  Y      0.00149     0.26439
             18  AL 1  Z      0.00149     0.26439
             19  AL 1  X     -0.00138     0.15265
             20  AL 1  Y      0.00068     0.04689
             21  AL 1  Z      0.00068     0.04689
             22  AL 1  X     -0.00069     0.25056
             23  AL 1  Y      0.00004     0.00110
             24  AL 1  Z      0.00004     0.00110
             25  AL 1 XX     -0.00000     0.14787
             26  AL 1 YY     -0.00000     0.14805
             27  AL 1 ZZ      0.00000     0.14805
             28  AL 1 XY      0.00000     0.00000
             29  AL 1 XZ      0.00000     0.00000
             30  AL 1 YZ      0.00000     0.00000
             31  AL 1 XX      0.00000     0.17824
             32  AL 1 YY      0.00000     0.17920
             33  AL 1 ZZ      0.00000     0.17920
             34  AL 1 XY      0.00000     0.00000
             35  AL 1 XZ      0.00000     0.00000
             36  AL 1 YZ      0.00000     0.00000
             37  AL 1 XX     -0.00000     0.21438
             38  AL 1 YY     -0.00001     0.21355
             39  AL 1 ZZ      0.00000     0.21355
             40  AL 1 XY      0.00000     0.00000
             41  AL 1 XZ      0.00000     0.00000
             42  AL 1 YZ      0.00000     0.00000
             43  AL 1 XX      0.00003     0.13614
             44  AL 1 YY      0.00010     0.12646
             45  AL 1 ZZ      0.00000     0.12646
             46  AL 1 XY      0.00000     0.00000
             47  AL 1 XZ      0.00000     0.00000
             48  AL 1 YZ      0.00000     0.00000
             49  AL 1 XXX     0.00000     0.19861
             50  AL 1 YYY     0.00000     0.19684
             51  AL 1 ZZZ     0.00000     0.19684
             52  AL 1 XXY     0.00000     0.09642
             53  AL 1 XXZ     0.00000     0.09642
             54  AL 1 YYX     0.00000     0.09758
             55  AL 1 YYZ     0.00000     0.09658
             56  AL 1 ZZX     0.00000     0.09758
             57  AL 1 ZZY     0.00000     0.09658
             58  AL 1 XYZ     0.00000     0.00000
             59  AL 1 XXX     0.00000     0.15902
             60  AL 1 YYY     0.00000     0.00080
             61  AL 1 ZZZ     0.00000     0.00080
             62  AL 1 XXY     0.00000     0.00040
             63  AL 1 XXZ     0.00000     0.00040
             64  AL 1 YYX     0.00000     0.07084
             65  AL 1 YYZ     0.00000     0.00041
             66  AL 1 ZZX     0.00000     0.07084
             67  AL 1 ZZY     0.00000     0.00041
             68  AL 1 XYZ     0.00000     0.00000

          ----- MULLIKEN ATOMIC OVERLAP POPULATIONS -----
          (OFF-DIAGONAL ELEMENTS NEED TO BE MULTIPLIED BY 2)

             1

    1   11.0000000

          TOTAL MULLIKEN AND LOWDIN ATOMIC POPULATIONS
       ATOM         MULL.POP.    CHARGE          LOW.POP.     CHARGE
    1 AL           11.000000    0.000000        11.000000   -0.000000

          MULLIKEN SPHERICAL HARMONIC POPULATIONS
       ATOM           S       P       D      F      G      H      I    TOTAL
    1 AL            4.00    7.00    0.00   0.00   0.00   0.00   0.00   11.00

          -------------------------------
          BOND ORDER AND VALENCE ANALYSIS     BOND ORDER THRESHOLD=0.050
          -------------------------------

                   BOND                       BOND                       BOND
  ATOM PAIR DIST  ORDER      ATOM PAIR DIST  ORDER      ATOM PAIR DIST  ORDER

                       TOTAL       BONDED        FREE
      ATOM            VALENCE     VALENCE     VALENCE
    1 AL                1.000       0.000       1.000

          -----------------------------------------
          ATOMIC SPIN DENSITY AT THE NUCLEUS (A.U.)
          -----------------------------------------
                            SPIN DENS    ALPHA DENS     BETA DENS
    1  AL          11.0     0.0000000       0.21872       0.21872

          ---------------------
          ELECTROSTATIC MOMENTS
          ---------------------

 POINT   1           X           Y           Z (BOHR)    CHARGE
                 0.000000    0.000000    0.000000       -0.00 (A.U.)
         DX          DY          DZ         /D/  (DEBYE)
     0.000000    0.000000    0.000000    0.000000
 ...... END OF PROPERTY EVALUATION ......
 STEP CPU TIME =     0.01 TOTAL CPU TIME =        0.4 (    0.0 MIN)
 TOTAL WALL CLOCK TIME=        0.7 SECONDS, CPU UTILIZATION IS  55.71%
                580000  WORDS OF DYNAMIC MEMORY USED
 EXECUTION OF GAMESS TERMINATED NORMALLY Wed Jan 16 15:38:56 2019
 DDI: 263624 bytes (0.3 MB / 0 MWords) used by master data server.

 ----------------------------------------
 CPU timing information for all processes
 ========================================
 0: 0.346 + 0.59 = 0.405
 ----------------------------------------
 ddikick.x: exited gracefully.
----- accounting info -----
Files used on the master node login3.stampede2.tacc.utexas.edu were:
-rw------- 1 aannabe G-801537    2608 Jan 16 15:38 /tmp/Al.F05
-rw------- 1 aannabe G-801537 4500400 Jan 16 15:38 /tmp/Al.F08
-rw------- 1 aannabe G-801537 2748480 Jan 16 15:38 /tmp/Al.F10
Wed Jan 16 15:38:59 CST 2019
0.224u 0.157s 0:04.18 8.8%	0+0k 0+32io 0pf+0w
