
 Primary working directories    : /global/cscratch1/sd/aannabe
 Secondary working directories  : /global/cscratch1/sd/aannabe
 Wavefunction directory         : /global/homes/a/aannabe/wfu/
 Main file repository           : /global/cscratch1/sd/aannabe/

 SHA1      : 2873118e99aab1bc19f5b6fc1784693c06d15c95
 NAME      : 2015.1.8
 ARCHNAME  : linux/x86_64
 FC        : /opt/cray/pe/craype/2.5.5/bin/ftn
 BLASLIB   : -Wl,-_start-group /opt/intel/compilers_and_libraries_2016.3.210/linux/mkl/lib/intel64/libmkl_intel_ilp64.a /opt/intel/compilers_and_libraries_2016.3.210/linux/mkl/lib/intel64/libmkl_intel_thread.a /opt/intel/compilers_and_libraries_2016.3.210/linux/mkl/lib/intel64/libmkl_core.a -Wl,-_end-group
 id        : lbl

 Nodes     nprocs
 nid00508     1

 Using customized tuning parameters: mindgm=8; mindgv=16; mindgc=4; mindgr=1; noblas=0; minvec=7
 default implementation of scratch files=df  

 ***,Si
 memory,512,m
 gthresh,twoint=1.e-12
 
 gprint,basis,orbitals
 gexpec,ekin,pot
 
 angstrom
 geometry={
 1                                                                               ! Number of atoms
 Si 0.0 0.0 0.0
 }
 
 basis={
 Including file /global/homes/a/aannabe/docs/totals_bfd/pps/Si.pp
 Including file /global/homes/a/aannabe/docs/totals_bfd/basis/aug-cc-pVnZ/Si_5z.basis
 }
 
 {hf
 wf,4,6,2
 occ,1,1,0,0,1,0,0,0
                                                                                 !open,1.2,1.5
 closed,1,0,0,0,0,0,0,0
                                                                                 !sym,
 }
 scf(i)=energy
 
 _CC_NORM_MAX=2.0
 {ci
 maxit,100
 core
 }
 posthf(i)=energy
 
 table,scf,posthf,ekin,pot
 save,5.csv,new
 
 

 Variables initialized (889), CPU time= 0.01 sec
 Commands  initialized (702), CPU time= 0.01 sec, 572 directives.
 Default parameters read. Elapsed time= 0.14 sec

 Checking input...
 Passed
1


                                         ***  PROGRAM SYSTEM MOLPRO  ***
                                       Copyright, TTI GmbH Stuttgart, 2015
                                    Version 2015.1 linked Sep  7 2016 23:09:38


 **********************************************************************************************************************************
 LABEL *   Si                                                                            
  64 bit serial version                                                                  DATE: 22-Jun-18          TIME: 11:36:10  
 **********************************************************************************************************************************

 SHA1:             2873118e99aab1bc19f5b6fc1784693c06d15c95
 **********************************************************************************************************************************

 THRESHOLDS:

 ZERO    =  1.00D-12  ONEINT  =  1.00D-12  TWOINT  =  1.00D-12  PREFAC  =  1.00D-14  LOCALI  =  1.00D-09  EORDER  =  1.00D-04
 ENERGY  =  0.00D+00  ETEST   =  0.00D+00  EDENS   =  0.00D+00  THRDEDEF=  1.00D-06  GRADIENT=  1.00D-02  STEP    =  1.00D-03
 ORBITAL =  1.00D-05  CIVEC   =  1.00D-05  COEFF   =  1.00D-04  PRINTCI =  5.00D-02  PUNCHCI =  9.90D+01  OPTGRAD =  3.00D-04
 OPTENERG=  1.00D-06  OPTSTEP =  3.00D-04  THRGRAD =  1.00D-10  COMPRESS=  1.00D-11  VARMIN  =  1.00D-07  VARMAX  =  1.00D-03
 THRDOUB =  0.00D+00  THRDIV  =  1.00D-05  THRRED  =  1.00D-07  THRPSP  =  1.00D+00  THRDC   =  1.00D-10  THRCS   =  1.00D-10
 THRNRM  =  1.00D-08  THREQ   =  0.00D+00  THRDE   =  1.00D+00  THRREF  =  1.00D-05  SPARFAC =  1.00D+00  THRDLP  =  1.00D-07
 THRDIA  =  1.00D-10  THRDLS  =  1.00D-07  THRGPS  =  0.00D+00  THRKEX  =  0.00D+00  THRDIS  =  2.00D-01  THRVAR  =  1.00D-10
 THRLOC  =  1.00D-06  THRGAP  =  1.00D-06  THRLOCT = -1.00D+00  THRGAPT = -1.00D+00  THRORB  =  1.00D-06  THRMLTP =  0.00D+00
 THRCPQCI=  1.00D-10  KEXTA   =  0.00D+00  THRCOARS=  0.00D+00  SYMTOL  =  1.00D-06  GRADTOL =  1.00D-06  THROVL  =  1.00D-08
 THRORTH =  1.00D-08  GRID    =  1.00D-06  GRIDMAX =  1.00D-03  DTMAX   =  0.00D+00  THROCCDE=  1.00D-01  THROCCDE=  1.00D-01



 ZUNIT=ANG
 

Geometry recognized as XYZ


 Variable memory set to  512000000 words,  buffer space   230000 words

 SETTING BASIS          =    USERDEF


 Recomputing integrals since basis changed


 Using spherical harmonics



 PROGRAM * SEWARD (Integral evaluation for generally contracted gaussian basis sets)     Author: Roland Lindh, 1990

 Geometry written to block  1 of record 700

 Orientation using atomic masses  
 Molecule type: Atom
 Symmetry elements: X,Y,Z
 Rotational constants:       0.0000000      0.0000000      0.0000000 GHz  (calculated with average atomic masses)

 Point group  D2h 



 ATOMIC COORDINATES

 NR  ATOM    CHARGE       X              Y              Z

   1  SI      4.00    0.000000000    0.000000000    0.000000000


          SI  CORE POTENTIAL

          d POTENTIAL

 POWERS             1              3              2
 EXPONENTIALS   1.807211       9.996331       2.500432    
 COEFFICIENTS   4.000000       7.228842      -13.06726    

          s - d POTENTIAL

 POWERS             2
 EXPONENTIALS   2.266864    
 COEFFICIENTS   21.20532    

          p - d POTENTIAL

 POWERS             2
 EXPONENTIALS   2.116597    
 COEFFICIENTS   15.43694    


 BASIS DATA

   Nr Sym  Nuc  Type         Exponents   Contraction coefficients

    1.1 Ag    1  1s           0.059887     0.167492
                              0.130108     0.532550
                              0.282668     0.464290
                              0.614115    -0.002322
                              1.334205    -0.268234
                              2.898645     0.031921
                              6.297493    -0.000106
                             13.681707    -0.000145
                             29.724387     0.000067
    2.1 Ag    1  1s           0.030200     1.000000
    3.1 Ag    1  1s           0.075500     1.000000
    4.1 Ag    1  1s           0.196459     1.000000
    5.1 Ag    1  1s           0.424036     1.000000
    6.1 Ag    1  1s           0.920486     1.000000
    7.1 Ag    1  3d0          0.051178     1.000000
    8.1 Ag    1  3d2+         0.051178     1.000000
    9.1 Ag    1  3d0          0.127945     1.000000
   10.1 Ag    1  3d2+         0.127945     1.000000
   11.1 Ag    1  3d0          0.353096     1.000000
   12.1 Ag    1  3d2+         0.353096     1.000000
   13.1 Ag    1  3d0          0.805426     1.000000
   14.1 Ag    1  3d2+         0.805426     1.000000
   15.1 Ag    1  3d0          1.247695     1.000000
   16.1 Ag    1  3d2+         1.247695     1.000000
   17.1 Ag    1  5g0          0.119954     1.000000
   18.1 Ag    1  5g4+         0.119954     1.000000
   19.1 Ag    1  5g2+         0.119954     1.000000
   20.1 Ag    1  5g0          0.299885     1.000000
   21.1 Ag    1  5g4+         0.299885     1.000000
   22.1 Ag    1  5g2+         0.299885     1.000000
   23.1 Ag    1  5g0          0.647054     1.000000
   24.1 Ag    1  5g4+         0.647054     1.000000
   25.1 Ag    1  5g2+         0.647054     1.000000
    1.2 B3u   1  2px          0.036525     0.078761
                              0.076137     0.308331
                              0.158712     0.417773
                              0.330843     0.281676
                              0.689658     0.069876
                              1.437625    -0.056306
                              2.996797     0.000744
                              6.246966    -0.000259
                             13.022097    -0.000022
    2.2 B3u   1  2px          0.019254     1.000000
    3.2 B3u   1  2px          0.048136     1.000000
    4.2 B3u   1  2px          0.115813     1.000000
    5.2 B3u   1  2px          0.238594     1.000000
    6.2 B3u   1  2px          0.496918     1.000000
    7.2 B3u   1  4f1+         0.069150     1.000000
    8.2 B3u   1  4f3+         0.069150     1.000000
    9.2 B3u   1  4f1+         0.172876     1.000000
   10.2 B3u   1  4f3+         0.172876     1.000000
   11.2 B3u   1  4f1+         0.402208     1.000000
   12.2 B3u   1  4f3+         0.402208     1.000000
   13.2 B3u   1  4f1+         0.833081     1.000000
   14.2 B3u   1  4f3+         0.833081     1.000000
   15.2 B3u   1  6h1+         0.223017     1.000000
   16.2 B3u   1  6h3+         0.223017     1.000000
   17.2 B3u   1  6h5+         0.223017     1.000000
   18.2 B3u   1  6h1+         0.557542     1.000000
   19.2 B3u   1  6h3+         0.557542     1.000000
   20.2 B3u   1  6h5+         0.557542     1.000000
    1.3 B2u   1  2py          0.036525     0.078761
                              0.076137     0.308331
                              0.158712     0.417773
                              0.330843     0.281676
                              0.689658     0.069876
                              1.437625    -0.056306
                              2.996797     0.000744
                              6.246966    -0.000259
                             13.022097    -0.000022
    2.3 B2u   1  2py          0.019254     1.000000
    3.3 B2u   1  2py          0.048136     1.000000
    4.3 B2u   1  2py          0.115813     1.000000
    5.3 B2u   1  2py          0.238594     1.000000
    6.3 B2u   1  2py          0.496918     1.000000
    7.3 B2u   1  4f1-         0.069150     1.000000
    8.3 B2u   1  4f3-         0.069150     1.000000
    9.3 B2u   1  4f1-         0.172876     1.000000
   10.3 B2u   1  4f3-         0.172876     1.000000
   11.3 B2u   1  4f1-         0.402208     1.000000
   12.3 B2u   1  4f3-         0.402208     1.000000
   13.3 B2u   1  4f1-         0.833081     1.000000
   14.3 B2u   1  4f3-         0.833081     1.000000
   15.3 B2u   1  6h1-         0.223017     1.000000
   16.3 B2u   1  6h3-         0.223017     1.000000
   17.3 B2u   1  6h5-         0.223017     1.000000
   18.3 B2u   1  6h1-         0.557542     1.000000
   19.3 B2u   1  6h3-         0.557542     1.000000
   20.3 B2u   1  6h5-         0.557542     1.000000
    1.4 B1g   1  3d2-         0.051178     1.000000
    2.4 B1g   1  3d2-         0.127945     1.000000
    3.4 B1g   1  3d2-         0.353096     1.000000
    4.4 B1g   1  3d2-         0.805426     1.000000
    5.4 B1g   1  3d2-         1.247695     1.000000
    6.4 B1g   1  5g2-         0.119954     1.000000
    7.4 B1g   1  5g4-         0.119954     1.000000
    8.4 B1g   1  5g2-         0.299885     1.000000
    9.4 B1g   1  5g4-         0.299885     1.000000
   10.4 B1g   1  5g2-         0.647054     1.000000
   11.4 B1g   1  5g4-         0.647054     1.000000
    1.5 B1u   1  2pz          0.036525     0.078761
                              0.076137     0.308331
                              0.158712     0.417773
                              0.330843     0.281676
                              0.689658     0.069876
                              1.437625    -0.056306
                              2.996797     0.000744
                              6.246966    -0.000259
                             13.022097    -0.000022
    2.5 B1u   1  2pz          0.019254     1.000000
    3.5 B1u   1  2pz          0.048136     1.000000
    4.5 B1u   1  2pz          0.115813     1.000000
    5.5 B1u   1  2pz          0.238594     1.000000
    6.5 B1u   1  2pz          0.496918     1.000000
    7.5 B1u   1  4f0          0.069150     1.000000
    8.5 B1u   1  4f2+         0.069150     1.000000
    9.5 B1u   1  4f0          0.172876     1.000000
   10.5 B1u   1  4f2+         0.172876     1.000000
   11.5 B1u   1  4f0          0.402208     1.000000
   12.5 B1u   1  4f2+         0.402208     1.000000
   13.5 B1u   1  4f0          0.833081     1.000000
   14.5 B1u   1  4f2+         0.833081     1.000000
   15.5 B1u   1  6h2+         0.223017     1.000000
   16.5 B1u   1  6h4+         0.223017     1.000000
   17.5 B1u   1  6h0          0.223017     1.000000
   18.5 B1u   1  6h2+         0.557542     1.000000
   19.5 B1u   1  6h4+         0.557542     1.000000
   20.5 B1u   1  6h0          0.557542     1.000000
    1.6 B2g   1  3d1+         0.051178     1.000000
    2.6 B2g   1  3d1+         0.127945     1.000000
    3.6 B2g   1  3d1+         0.353096     1.000000
    4.6 B2g   1  3d1+         0.805426     1.000000
    5.6 B2g   1  3d1+         1.247695     1.000000
    6.6 B2g   1  5g1+         0.119954     1.000000
    7.6 B2g   1  5g3+         0.119954     1.000000
    8.6 B2g   1  5g1+         0.299885     1.000000
    9.6 B2g   1  5g3+         0.299885     1.000000
   10.6 B2g   1  5g1+         0.647054     1.000000
   11.6 B2g   1  5g3+         0.647054     1.000000
    1.7 B3g   1  3d1-         0.051178     1.000000
    2.7 B3g   1  3d1-         0.127945     1.000000
    3.7 B3g   1  3d1-         0.353096     1.000000
    4.7 B3g   1  3d1-         0.805426     1.000000
    5.7 B3g   1  3d1-         1.247695     1.000000
    6.7 B3g   1  5g1-         0.119954     1.000000
    7.7 B3g   1  5g3-         0.119954     1.000000
    8.7 B3g   1  5g1-         0.299885     1.000000
    9.7 B3g   1  5g3-         0.299885     1.000000
   10.7 B3g   1  5g1-         0.647054     1.000000
   11.7 B3g   1  5g3-         0.647054     1.000000
    1.8 Au    1  4f2-         0.069150     1.000000
    2.8 Au    1  4f2-         0.172876     1.000000
    3.8 Au    1  4f2-         0.402208     1.000000
    4.8 Au    1  4f2-         0.833081     1.000000
    5.8 Au    1  6h4-         0.223017     1.000000
    6.8 Au    1  6h2-         0.223017     1.000000
    7.8 Au    1  6h4-         0.557542     1.000000
    8.8 Au    1  6h2-         0.557542     1.000000

 NUCLEAR CHARGE:                    4
 NUMBER OF PRIMITIVE AOS:         213
 NUMBER OF SYMMETRY AOS:          158
 NUMBER OF CONTRACTIONS:          126   (  25Ag  +  20B3u +  20B2u +  11B1g +  20B1u +  11B2g +  11B3g +   8Au  )
 NUMBER OF CORE ORBITALS:           0   (   0Ag  +   0B3u +   0B2u +   0B1g +   0B1u +   0B2g +   0B3g +   0Au  )
 NUMBER OF VALENCE ORBITALS:        4   (   1Ag  +   1B3u +   1B2u +   0B1g +   1B1u +   0B2g +   0B3g +   0Au  )


 NUCLEAR REPULSION ENERGY    0.00000000

 EXTRA SYMMETRY OF AOS IN SYMMETRY 1:   1 1 1 1 1 1 2 3 2 3   2 3 2 3 2 3 4 5 6 4   5 6 4 5 6
 EXTRA SYMMETRY OF AOS IN SYMMETRY 2:   1 1 1 1 1 1 2 3 2 3   2 3 2 3 4 5 6 4 5 6
 EXTRA SYMMETRY OF AOS IN SYMMETRY 3:   1 1 1 1 1 1 2 3 2 3   2 3 2 3 4 5 6 4 5 6
 EXTRA SYMMETRY OF AOS IN SYMMETRY 4:   1 1 1 1 1 2 3 2 3 2   3
 EXTRA SYMMETRY OF AOS IN SYMMETRY 5:   1 1 1 1 1 1 2 3 2 3   2 3 2 3 4 5 6 4 5 6
 EXTRA SYMMETRY OF AOS IN SYMMETRY 6:   1 1 1 1 1 2 3 2 3 2   3
 EXTRA SYMMETRY OF AOS IN SYMMETRY 7:   1 1 1 1 1 2 3 2 3 2   3
 EXTRA SYMMETRY OF AOS IN SYMMETRY 8:   1 1 1 1 2 3 2 3

 Eigenvalues of metric

         1 0.966E-04 0.589E-02 0.207E-01 0.207E-01 0.471E-01 0.137E+00 0.137E+00 0.198E+00
         2 0.508E-03 0.130E-01 0.853E-01 0.853E-01 0.919E-01 0.385E+00 0.385E+00 0.413E+00
         3 0.508E-03 0.130E-01 0.853E-01 0.853E-01 0.919E-01 0.385E+00 0.385E+00 0.413E+00
         4 0.207E-01 0.137E+00 0.198E+00 0.198E+00 0.503E+00 0.830E+00 0.830E+00 0.153E+01
         5 0.508E-03 0.130E-01 0.853E-01 0.853E-01 0.919E-01 0.385E+00 0.385E+00 0.413E+00
         6 0.207E-01 0.137E+00 0.198E+00 0.198E+00 0.503E+00 0.830E+00 0.830E+00 0.153E+01
         7 0.207E-01 0.137E+00 0.198E+00 0.198E+00 0.503E+00 0.830E+00 0.830E+00 0.153E+01
         8 0.853E-01 0.385E+00 0.483E+00 0.483E+00 0.117E+01 0.152E+01 0.152E+01 0.236E+01


 Contracted 2-electron integrals neglected if value below      1.0D-12
 AO integral compression algorithm  1   Integral accuracy      1.0D-12

     29.098 MB (compressed) written to integral file ( 52.5%)


 NUMBER OF SORTED TWO-ELECTRON INTEGRALS:    4156552.     BUFFER LENGTH:  32768
 NUMBER OF SEGMENTS:   1  SEGMENT LENGTH:    4156552      RECORD LENGTH: 524288

 Memory used in sort:       4.71 MW

 SORT1 READ     6989366. AND WROTE     2907704. INTEGRALS IN      9 RECORDS. CPU TIME:     0.24 SEC, REAL TIME:     0.33 SEC
 SORT2 READ     2907704. AND WROTE     4156552. INTEGRALS IN    111 RECORDS. CPU TIME:     0.24 SEC, REAL TIME:     0.42 SEC

 FILE SIZES:   FILE 1:    48.6 MBYTE,  FILE 4:    37.8 MBYTE,   TOTAL:     86.3 MBYTE

 OPERATOR DM      FOR CENTER  0  COORDINATES:    0.000000    0.000000    0.000000
 OPERATOR EKIN    FOR CENTER  0  COORDINATES:    0.000000    0.000000    0.000000
 OPERATOR POT     FOR CENTER  0  COORDINATES:    0.000000    0.000000    0.000000


 **********************************************************************************************************************************
 DATASETS  * FILE   NREC   LENGTH (MB)   RECORD NAMES
              1      20       37.06       500      610      700      900      950      970     1000      129      960     1100   
                                          VAR    BASINP    GEOM    SYMINP    ZMAT    AOBASIS   BASIS     P2S    ABASIS      S 
                                         1400     1410     1420     1200     1210     1080     1600     1650     1300     1700   
                                         EKIN       V       ECP      H0       H01     AOSYM     SMH    MOLCAS    ERIS     OPER   

 PROGRAMS   *        TOTAL       INT
 CPU TIMES  *         2.24      2.12
 REAL TIME  *         6.38 SEC
 DISK USED  *        86.64 MB      
 **********************************************************************************************************************************


 PROGRAM * RHF-SCF (OPEN SHELL)       Authors: W. Meyer, H.-J. Werner


 NUMBER OF ELECTRONS:       3+    1-    SPACE SYMMETRY=6    SPIN SYMMETRY: Triplet 
 CONVERGENCE THRESHOLDS:    1.00E-05 (Density)    1.00E-07 (Energy)
 MAX. NUMBER OF ITERATIONS:       60
 INTERPOLATION TYPE:            DIIS
 INTERPOLATION STEPS:              2 (START)      1 (STEP)
 LEVEL SHIFTS:                 -0.60 (CLOSED) -0.30 (OPEN) 

 Number of closed-shell orbitals:    1 (   1   0   0   0   0   0   0   0 )
 Number of open-shell orbitals:      2 (   0   1   0   0   1   0   0   0 )



   Atom=SI basis=ECP10MWB_GUESS    lmin=0  lmax=1

 Orbital guess generated from atomic densities. Full valence occupancy:    1   1   1   0   1   0   0   0


 Molecular orbital dump at record        2100.2

 ITERATION    DDIFF          GRAD             ENERGY        2-EL.EN.            DIPOLE MOMENTS         DIIS   ORB.
    1      0.000D+00      0.000D+00        -3.66684895      3.785616    0.00000    0.00000    0.00000    0    start
    2      0.000D+00      0.494D-02        -3.67492310      3.895852    0.00000    0.00000    0.00000    1    diag,B
    3      0.596D-02      0.221D-02        -3.67798180      3.972257    0.00000    0.00000    0.00000    2    diag,B
    4      0.383D-02      0.957D-03        -3.67864168      4.002540    0.00000    0.00000    0.00000    3    diag,B
    5      0.207D-02      0.271D-03        -3.67867364      4.004476    0.00000    0.00000    0.00000    4    diag,B
    6      0.614D-03      0.730D-04        -3.67867552      4.004923    0.00000    0.00000    0.00000    5    diag,B
    7      0.487D-03      0.143D-04        -3.67867557      4.004744    0.00000    0.00000    0.00000    6    fixocc
    8      0.120D-03      0.519D-05        -3.67867557      4.004774    0.00000    0.00000    0.00000    7    diag,B
    9      0.293D-04      0.101D-05        -3.67867557      4.004757    0.00000    0.00000    0.00000    8    diag,B
   10      0.772D-05      0.153D-06        -3.67867557      4.004757    0.00000    0.00000    0.00000    0    orth

 Final alpha occupancy:   1   1   0   0   1   0   0   0
 Final beta  occupancy:   1   0   0   0   0   0   0   0

 !RHF STATE 1.6 Energy                 -3.678675572492
 Nuclear energy                         0.00000000
 One-electron energy                   -5.68105387
 Two-electron energy                    2.00237830
 Virial quotient                       -2.83261489
 !RHF STATE 1.6 Dipole moment           0.00000000     0.00000000     0.00000000
 Dipole moment /Debye                   0.00000000     0.00000000     0.00000000
 

 !RHF expec          <1.6|EKIN|1.6>     1.298685389067
 
 !RHF expec           <1.6|POT|1.6>    -1.930266775508

 ELECTRON ORBITALS
 =================


   Orb  Occ    Energy  Couls-En    Coefficients

                                   1 1s      1 1s      1 1s      1 1s      1 1s      1 1s      1 3d0     1 3d2+    1 3d0     1 3d2+ 
                                   1 3d0     1 3d2+    1 3d0     1 3d2+    1 3d0     1 3d2+    1 5g0     1 5g4+    1 5g2+    1 5g0  
                                   1 5g4+    1 5g2+    1 5g0     1 5g4+    1 5g2+ 

   1.1   2    -0.5411   -2.1419  1.005238  0.001113 -0.003996 -0.001308 -0.002735  0.002212  0.001423  0.002465  0.003142  0.005442
                                -0.000392 -0.000678 -0.000101 -0.000175  0.000380  0.000657 -0.000025 -0.000050 -0.000038 -0.000016
                                -0.000031 -0.000024  0.000001  0.000001  0.000001

                                   1 2px     1 2px     1 2px     1 2px     1 2px     1 2px     1 4f1+    1 4f3+    1 4f1+    1 4f3+ 
                                   1 4f1+    1 4f3+    1 4f1+    1 4f3+    1 6h1+    1 6h3+    1 6h5+    1 6h1+    1 6h3+    1 6h5+ 


   1.2   +    -0.2970   -1.5368  1.000614  0.000827 -0.001200  0.000746 -0.000942  0.000139  0.000025  0.000095 -0.000006 -0.000023
                                -0.000026 -0.000100 -0.000001 -0.000002 -0.000000 -0.000001 -0.000001  0.000000  0.000000  0.000000

                                   1 2pz     1 2pz     1 2pz     1 2pz     1 2pz     1 2pz     1 4f0     1 4f2+    1 4f0     1 4f2+ 
                                   1 4f0     1 4f2+    1 4f0     1 4f2+    1 6h2+    1 6h4+    1 6h0     1 6h2+    1 6h4+    1 6h0  


   1.5   +    -0.2970   -1.5368  1.000614  0.000827 -0.001200  0.000746 -0.000942  0.000139  0.000060  0.000077 -0.000014 -0.000018
                                -0.000063 -0.000081 -0.000001 -0.000002 -0.000001 -0.000001 -0.000001  0.000000  0.000000  0.000000

 HOMO      1.2    -0.297008 =      -8.0820eV
 LUMO      1.3    -0.017105 =      -0.4654eV
 LUMO-HOMO         0.279903 =       7.6166eV


 **********************************************************************************************************************************
 DATASETS  * FILE   NREC   LENGTH (MB)   RECORD NAMES
              1      20       37.06       500      610      700      900      950      970     1000      129      960     1100   
                                          VAR    BASINP    GEOM    SYMINP    ZMAT    AOBASIS   BASIS     P2S    ABASIS      S 
                                         1400     1410     1420     1200     1210     1080     1600     1650     1300     1700   
                                         EKIN       V       ECP      H0       H01     AOSYM     SMH    MOLCAS    ERIS     OPER   

              2       4        2.83       700     1000      520     2100   
                                         GEOM     BASIS   MCVARS     RHF  

 PROGRAMS   *        TOTAL        HF       INT
 CPU TIMES  *         2.49      0.25      2.12
 REAL TIME  *         6.78 SEC
 DISK USED  *        86.64 MB      
 **********************************************************************************************************************************
 SETTING SCF(I)         =        -3.67867557  AU                              
 SETTING _CC_NORM_MAX   =         2.00000000                                  


 PROGRAM * CI (Multireference internally contracted CI)     Authors: H.-J. Werner, P.J. Knowles, 1987


 Convergence thresholds:  THRVAR = 1.00D-08  THRDEN = 1.00D-06

 Number of optimized states:  1  Roots:   1
 Number of reference states:  1  Roots:   1

 Reference symmetry:                   6   Triplet 
 Number of electrons:                  4
 Maximum number of shells:             2
 Maximum number of spin couplings:     3

 Reference space:        1 conf        1 CSFs
 N elec internal:        3 conf        3 CSFs
 N-1 el internal:        7 conf        9 CSFs
 N-2 el internal:        4 conf       10 CSFs

 Number of electrons in valence space:                      4
 Maximum number of open shell orbitals in reference space:  2
 Maximum number of open shell orbitals in internal spaces:  4


 Number of closed-shell orbitals:   1 (   1   0   0   0   0   0   0   0 )
 Number of active  orbitals:        2 (   0   1   0   0   1   0   0   0 )
 Number of external orbitals:     123 (  24  19  20  11  19  11  11   8 )

 Molecular orbitals read from record     2100.2  Type=RHF/CANONICAL (state 1.6)

 Integral transformation finished. Total CPU:   0.03 sec, npass=  1  Memory used:   0.09 MW

 Number of p-space configurations:   1

 Reference wavefunction optimized for reference space (refopt=1)

 State     Reference Energy 
   1          -3.67867557

 Number of blocks in overlap matrix:     6   Smallest eigenvalue:  0.10D+01
 Number of N-2 electron functions:       6
 Number of N-1 electron functions:       9

 Number of internal configurations:                    1
 Number of singly external configurations:           170
 Number of doubly external configurations:          5922
 Total number of contracted configurations:         6093
 Total number of uncontracted configurations:      10041

 Diagonal Coupling coefficients finished.               Storage:     446 words, CPU-Time:      0.00 seconds.
 Energy denominators for pairs finished in 1 passes.    Storage:   12107 words, CPU-time:      0.00 seconds.

  ITER. STATE  ROOT     SQ.NORM     CORR.ENERGY   TOTAL ENERGY   ENERGY CHANGE       DEN1      VAR(S)    VAR(P)      TIME
    1     1     1     1.00000000     0.00000000    -3.67867557     0.00000000    -0.08284267  0.27D-01  0.38D-01     0.04
    2     1     1     1.06030321    -0.08034793    -3.75902351    -0.08034793    -0.00261577  0.50D-03  0.11D-02     0.08
    3     1     1     1.07374986    -0.08363423    -3.76230981    -0.00328630    -0.00019529  0.33D-04  0.97D-04     0.13
    4     1     1     1.07542336    -0.08391199    -3.76258756    -0.00027775    -0.00002071  0.29D-05  0.88D-05     0.18
    5     1     1     1.07573672    -0.08393711    -3.76261268    -0.00002512    -0.00000115  0.13D-06  0.48D-06     0.21
    6     1     1     1.07580180    -0.08393845    -3.76261402    -0.00000134    -0.00000005  0.76D-08  0.21D-07     0.26
    7     1     1     1.07580026    -0.08393851    -3.76261408    -0.00000006    -0.00000000  0.51D-09  0.14D-08     0.30


 =====================================
 Analysis of CPU times by interactions
 =====================================

       I      S      P

 I   3.3%
 S   0.0%   0.0%
 P   0.0%   3.3%   0.0%

 Initialization:  13.3%
 Other:           80.0%

 Total CPU:        0.3 seconds
 =====================================



 Reference coefficients greater than 0.0500000
 =============================================
 2//           0.9641268

 Coefficients of singly external configurations greater than 0.0500000
 =====================================================================

 /\/   6.1     0.0598855
 //\   7.1    -0.0508511

 Coefficients of doubly external configurations greater than 0.0500000
 =====================================================================

 PAIR    I     J   ->   K     L     NP  SYM  REF     COEFFICIENTS

   1    1.1   1.1      1.3   1.3     1   1    1   -0.08076401



 RESULTS FOR STATE 1.6
 =====================

 Coefficient of reference function:   C(0) = 0.96412685 (fixed)   0.96412685 (relaxed)

 Energy contributions of configuration classes

 CLASS          SQ.NORM        ECORR1        ECORR2
 +++++++++++++++++++++++++++++++++++++++++++++++++++
 Internals    0.00000000    0.00000000    0.00000000
 Singles      0.02675707   -0.02403517   -0.02442881
 Pairs        0.04904319   -0.05990334   -0.05950970
 Total        1.07580026   -0.08393851   -0.08393851
 +++++++++++++++++++++++++++++++++++++++++++++++++++


 Reference energy                      -3.67867557
 Nuclear energy                         0.00000000
 Kinetic energy                         1.38739856
 One electron energy                   -5.64246285
 Two electron energy                    1.87984877
 Virial quotient                       -2.71199220
 Correlation energy                    -0.08393851
 !CI(SD) STATE 1.6 Energy              -3.762614078936

 Properties without orbital relaxation:

 !CI(SD) STATE 1.6 Dipole moment        0.00000000     0.00000000     0.00000000
 Dipole moment /Debye                   0.00000000     0.00000000     0.00000000

 Cluster corrected energies            -3.76897664 (Davidson, fixed reference)
 Cluster corrected energies            -3.76897664 (Davidson, relaxed reference)

 Cluster corrected energies            -3.76261408 (Pople, fixed reference)
 Cluster corrected energies            -3.76261408 (Pople, relaxed reference)

 

 !CI(SD) expec       <1.6|EKIN|1.6>     1.387398564644
 
 !CI(SD) expec        <1.6|POT|1.6>    -1.941982261689


 **********************************************************************************************************************************
 DATASETS  * FILE   NREC   LENGTH (MB)   RECORD NAMES
              1      21       37.26       500      610      700      900      950      970     1000      129      960     1100   
                                          VAR    BASINP    GEOM    SYMINP    ZMAT    AOBASIS   BASIS     P2S    ABASIS      S 
                                         1400     1410     1420     1200     1210     1080     1600     1650     1300     1700   
                                         EKIN       V       ECP      H0       H01     AOSYM     SMH    MOLCAS    ERIS     OPER   
                                         1380   
                                         JKOP   

              2       4        2.83       700     1000      520     2100   
                                         GEOM     BASIS   MCVARS     RHF  

 PROGRAMS   *        TOTAL        CI        HF       INT
 CPU TIMES  *         2.83      0.34      0.25      2.12
 REAL TIME  *         7.52 SEC
 DISK USED  *        86.64 MB      
 **********************************************************************************************************************************
 SETTING POSTHF(I)      =        -3.76261408  AU                              
                                                                                                                                                                                                                                                                

       SCF           POSTHF       EKIN          POT
    -3.67867557   -3.76261408   1.38739856   -1.94198226
                                                  

 CI/USERDEF energy=     -3.762614078936

        CI              HF-SCF  
     -3.76261408     -3.67867557
 **********************************************************************************************************************************
 Variable memory released
