
 Primary working directories    : /global/cscratch1/sd/aannabe
 Secondary working directories  : /global/cscratch1/sd/aannabe
 Wavefunction directory         : /global/homes/a/aannabe/wfu/
 Main file repository           : /global/cscratch1/sd/aannabe/

 SHA1      : 2873118e99aab1bc19f5b6fc1784693c06d15c95
 NAME      : 2015.1.8
 ARCHNAME  : linux/x86_64
 FC        : /opt/cray/pe/craype/2.5.5/bin/ftn
 BLASLIB   : -Wl,-_start-group /opt/intel/compilers_and_libraries_2016.3.210/linux/mkl/lib/intel64/libmkl_intel_ilp64.a /opt/intel/compilers_and_libraries_2016.3.210/linux/mkl/lib/intel64/libmkl_intel_thread.a /opt/intel/compilers_and_libraries_2016.3.210/linux/mkl/lib/intel64/libmkl_core.a -Wl,-_end-group
 id        : lbl

 Nodes     nprocs
 nid00521     1

 Using customized tuning parameters: mindgm=8; mindgv=16; mindgc=4; mindgr=1; noblas=0; minvec=7
 default implementation of scratch files=df  

 ***,V
 memory,512,m
 gthresh,twoint=1.e-12
 
 gprint,basis,orbitals
 gexpec,ekin,pot
 
 angstrom
 geometry={
 1                                                                               ! Number of atoms
 V 0.0 0.0 0.0
 }
 
 basis={
 Including file /global/homes/a/aannabe/docs/accurate/ccECP_D2h/pps/V.pp
                                              !include,/global/homes/a/aannabe/docs/accurate/ccECP_D2h/basis/aug-cc-pVnZ/V_dz.basis
 Including file /global/homes/a/aannabe/docs/accurate/ccECP_D2h/basis/cc-pVnZ/V_dz.basis
 }
 
 {hf
 wf,13,6,3
 occ,4,1,1,0,1,1,0,0
 open,3.1,4.1,1.6
 sym,1,1,1
 }
 scf(i)=energy
 
 _CC_NORM_MAX=2.0
 {ci
 maxit,100
 core
 }
 posthf(i)=energy
 
 table,scf,posthf,ekin,pot
 save,2.csv,new
 
 

 Variables initialized (889), CPU time= 0.01 sec
 Commands  initialized (702), CPU time= 0.01 sec, 572 directives.
 Default parameters read. Elapsed time= 0.20 sec

 Checking input...
 Passed
1


                                         ***  PROGRAM SYSTEM MOLPRO  ***
                                       Copyright, TTI GmbH Stuttgart, 2015
                                    Version 2015.1 linked Sep  7 2016 23:09:38


 **********************************************************************************************************************************
 LABEL *   V                                                                             
  64 bit serial version                                                                  DATE: 13-Nov-18          TIME: 22:25:19  
 **********************************************************************************************************************************

 SHA1:             2873118e99aab1bc19f5b6fc1784693c06d15c95
 **********************************************************************************************************************************

 THRESHOLDS:

 ZERO    =  1.00D-12  ONEINT  =  1.00D-12  TWOINT  =  1.00D-12  PREFAC  =  1.00D-14  LOCALI  =  1.00D-09  EORDER  =  1.00D-04
 ENERGY  =  0.00D+00  ETEST   =  0.00D+00  EDENS   =  0.00D+00  THRDEDEF=  1.00D-06  GRADIENT=  1.00D-02  STEP    =  1.00D-03
 ORBITAL =  1.00D-05  CIVEC   =  1.00D-05  COEFF   =  1.00D-04  PRINTCI =  5.00D-02  PUNCHCI =  9.90D+01  OPTGRAD =  3.00D-04
 OPTENERG=  1.00D-06  OPTSTEP =  3.00D-04  THRGRAD =  1.00D-10  COMPRESS=  1.00D-11  VARMIN  =  1.00D-07  VARMAX  =  1.00D-03
 THRDOUB =  0.00D+00  THRDIV  =  1.00D-05  THRRED  =  1.00D-07  THRPSP  =  1.00D+00  THRDC   =  1.00D-10  THRCS   =  1.00D-10
 THRNRM  =  1.00D-08  THREQ   =  0.00D+00  THRDE   =  1.00D+00  THRREF  =  1.00D-05  SPARFAC =  1.00D+00  THRDLP  =  1.00D-07
 THRDIA  =  1.00D-10  THRDLS  =  1.00D-07  THRGPS  =  0.00D+00  THRKEX  =  0.00D+00  THRDIS  =  2.00D-01  THRVAR  =  1.00D-10
 THRLOC  =  1.00D-06  THRGAP  =  1.00D-06  THRLOCT = -1.00D+00  THRGAPT = -1.00D+00  THRORB  =  1.00D-06  THRMLTP =  0.00D+00
 THRCPQCI=  1.00D-10  KEXTA   =  0.00D+00  THRCOARS=  0.00D+00  SYMTOL  =  1.00D-06  GRADTOL =  1.00D-06  THROVL  =  1.00D-08
 THRORTH =  1.00D-08  GRID    =  1.00D-06  GRIDMAX =  1.00D-03  DTMAX   =  0.00D+00  THROCCDE=  1.00D-01  THROCCDE=  1.00D-01



 ZUNIT=ANG
 

Geometry recognized as XYZ


 Variable memory set to  512000000 words,  buffer space   230000 words

 SETTING BASIS          =    USERDEF


 Recomputing integrals since basis changed


 Using spherical harmonics



 PROGRAM * SEWARD (Integral evaluation for generally contracted gaussian basis sets)     Author: Roland Lindh, 1990

 Geometry written to block  1 of record 700

 Orientation using atomic masses  
 Molecule type: Atom
 Symmetry elements: X,Y,Z
 Rotational constants:       0.0000000      0.0000000      0.0000000 GHz  (calculated with average atomic masses)

 Point group  D2h 



 ATOMIC COORDINATES

 NR  ATOM    CHARGE       X              Y              Z

   1  V      13.00    0.000000000    0.000000000    0.000000000


          V   CORE POTENTIAL

          d POTENTIAL

 POWERS             1              3              2              2
 EXPONENTIALS   20.32169       19.59698       17.33147       5.123207    
 COEFFICIENTS   13.00000       264.1820      -115.2929     -0.6628873    

          s - d POTENTIAL

 POWERS             2              2
 EXPONENTIALS   15.12502       6.298989    
 COEFFICIENTS   195.5671       22.88643    

          p - d POTENTIAL

 POWERS             2              2
 EXPONENTIALS   15.93855       5.740063    
 COEFFICIENTS   126.4212       16.03597    


 BASIS DATA

   Nr Sym  Nuc  Type         Exponents   Contraction coefficients

    1.1 Ag    1  1s          68.577621     0.000804   -0.000177   -0.000583    0.000000
    2.1 Ag                   34.937147    -0.011594    0.002791    0.009570    0.000000
    3.1 Ag                   17.939491     0.092209   -0.023650   -0.085606    0.000000
    4.1 Ag                   11.262123    -0.045477    0.012504    0.048426    0.000000
                              6.776264    -0.287983    0.078761    0.331239    0.000000
                              3.524091    -0.217648    0.054974    0.140352    0.000000
                              1.938421     0.407509   -0.118955   -0.907962    0.000000
                              0.927153     0.658193   -0.245341   -0.503878    0.000000
                              0.448420     0.255234   -0.222959    0.398938    0.000000
                              0.209668     0.008620    0.047809    0.971131    0.000000
                              0.103660     0.002734    0.415374    0.423999    0.000000
                              0.050630    -0.001161    0.540880   -0.628646    0.000000
                              0.024201     0.000294    0.183421   -0.467495    1.000000
    5.1 Ag    1  1s           0.736615     1.000000
    6.1 Ag    1  1s           2.619861     1.000000
    7.1 Ag    1  3d0         89.989649     0.000051
                             33.132961     0.004804
                             15.879656     0.029485
                              7.465803     0.086249
                              3.551993     0.179728
                              1.728185     0.261850
                              0.850498     0.291794
                              0.417673     0.259356
                              0.201523     0.174944
                              0.100711     0.062278
                              0.058959     0.027653
    8.1 Ag    1  3d2+        89.989649     0.000051
                             33.132961     0.004804
                             15.879656     0.029485
                              7.465803     0.086249
                              3.551993     0.179728
                              1.728185     0.261850
                              0.850498     0.291794
                              0.417673     0.259356
                              0.201523     0.174944
                              0.100711     0.062278
                              0.058959     0.027653
    9.1 Ag    1  3d0         89.989649    -0.000038
                             33.132961    -0.004590
                             15.879656    -0.027563
                              7.465803    -0.082775
                              3.551993    -0.173494
                              1.728185    -0.236188
                              0.850498    -0.149226
                              0.417673     0.044145
                              0.201523     0.390500
                              0.100711     0.203064
                              0.058959     0.398002
   10.1 Ag    1  3d2+        89.989649    -0.000038
                             33.132961    -0.004590
                             15.879656    -0.027563
                              7.465803    -0.082775
                              3.551993    -0.173494
                              1.728185    -0.236188
                              0.850498    -0.149226
                              0.417673     0.044145
                              0.201523     0.390500
                              0.100711     0.203064
                              0.058959     0.398002
   11.1 Ag    1  3d0         89.989649     0.000000
                             33.132961     0.000000
                             15.879656     0.000000
                              7.465803     0.000000
                              3.551993     0.000000
                              1.728185     0.000000
                              0.850498     0.000000
                              0.417673     0.000000
                              0.201523     0.000000
                              0.100711     0.000000
                              0.058959     1.000000
   12.1 Ag    1  3d2+        89.989649     0.000000
                             33.132961     0.000000
                             15.879656     0.000000
                              7.465803     0.000000
                              3.551993     0.000000
                              1.728185     0.000000
                              0.850498     0.000000
                              0.417673     0.000000
                              0.201523     0.000000
                              0.100711     0.000000
                              0.058959     1.000000
   13.1 Ag    1  3d0          0.749306     1.000000
   14.1 Ag    1  3d2+         0.749306     1.000000
   15.1 Ag    1  3d0          1.799378     1.000000
   16.1 Ag    1  3d2+         1.799378     1.000000
    1.2 B3u   1  2px         96.215967     0.000069    0.000040   -0.000053    0.000000
    2.2 B3u                  49.579340    -0.000672   -0.000133    0.000023    0.000000
    3.2 B3u                  25.638009     0.008199   -0.000955    0.004629    0.000000
    4.2 B3u                  14.025942    -0.027108    0.003719   -0.007755    0.000000
                              8.740334    -0.053021    0.018866   -0.104133    0.000000
                              4.634840     0.005002   -0.012074   -0.017762    0.000000
                              2.553374     0.261986   -0.057107    0.728212    0.000000
                              1.321166     0.433544   -0.146433    0.218826    0.000000
                              0.681285     0.324947   -0.067365   -0.493223    0.000000
                              0.349458     0.092342   -0.068254   -0.838192    0.000000
                              0.172773     0.008964    0.403103    0.398401    0.000000
                              0.063300     0.001185    0.502668    0.664589    0.000000
                              0.033969     0.000104    0.261291    0.033011    1.000000
    5.2 B3u   1  2px          0.973954     1.000000
    6.2 B3u   1  2px          4.004062     1.000000
    7.2 B3u   1  4f1+         1.138450     1.000000
    8.2 B3u   1  4f3+         1.138450     1.000000
    9.2 B3u   1  4f1+         3.352552     1.000000
   10.2 B3u   1  4f3+         3.352552     1.000000
    1.3 B2u   1  2py         96.215967     0.000069    0.000040   -0.000053    0.000000
    2.3 B2u                  49.579340    -0.000672   -0.000133    0.000023    0.000000
    3.3 B2u                  25.638009     0.008199   -0.000955    0.004629    0.000000
    4.3 B2u                  14.025942    -0.027108    0.003719   -0.007755    0.000000
                              8.740334    -0.053021    0.018866   -0.104133    0.000000
                              4.634840     0.005002   -0.012074   -0.017762    0.000000
                              2.553374     0.261986   -0.057107    0.728212    0.000000
                              1.321166     0.433544   -0.146433    0.218826    0.000000
                              0.681285     0.324947   -0.067365   -0.493223    0.000000
                              0.349458     0.092342   -0.068254   -0.838192    0.000000
                              0.172773     0.008964    0.403103    0.398401    0.000000
                              0.063300     0.001185    0.502668    0.664589    0.000000
                              0.033969     0.000104    0.261291    0.033011    1.000000
    5.3 B2u   1  2py          0.973954     1.000000
    6.3 B2u   1  2py          4.004062     1.000000
    7.3 B2u   1  4f1-         1.138450     1.000000
    8.3 B2u   1  4f3-         1.138450     1.000000
    9.3 B2u   1  4f1-         3.352552     1.000000
   10.3 B2u   1  4f3-         3.352552     1.000000
    1.4 B1g   1  3d2-        89.989649     0.000051   -0.000038    0.000000
    2.4 B1g                  33.132961     0.004804   -0.004590    0.000000
    3.4 B1g                  15.879656     0.029485   -0.027563    0.000000
                              7.465803     0.086249   -0.082775    0.000000
                              3.551993     0.179728   -0.173494    0.000000
                              1.728185     0.261850   -0.236188    0.000000
                              0.850498     0.291794   -0.149226    0.000000
                              0.417673     0.259356    0.044145    0.000000
                              0.201523     0.174944    0.390500    0.000000
                              0.100711     0.062278    0.203064    0.000000
                              0.058959     0.027653    0.398002    1.000000
    4.4 B1g   1  3d2-         0.749306     1.000000
    5.4 B1g   1  3d2-         1.799378     1.000000
    1.5 B1u   1  2pz         96.215967     0.000069    0.000040   -0.000053    0.000000
    2.5 B1u                  49.579340    -0.000672   -0.000133    0.000023    0.000000
    3.5 B1u                  25.638009     0.008199   -0.000955    0.004629    0.000000
    4.5 B1u                  14.025942    -0.027108    0.003719   -0.007755    0.000000
                              8.740334    -0.053021    0.018866   -0.104133    0.000000
                              4.634840     0.005002   -0.012074   -0.017762    0.000000
                              2.553374     0.261986   -0.057107    0.728212    0.000000
                              1.321166     0.433544   -0.146433    0.218826    0.000000
                              0.681285     0.324947   -0.067365   -0.493223    0.000000
                              0.349458     0.092342   -0.068254   -0.838192    0.000000
                              0.172773     0.008964    0.403103    0.398401    0.000000
                              0.063300     0.001185    0.502668    0.664589    0.000000
                              0.033969     0.000104    0.261291    0.033011    1.000000
    5.5 B1u   1  2pz          0.973954     1.000000
    6.5 B1u   1  2pz          4.004062     1.000000
    7.5 B1u   1  4f0          1.138450     1.000000
    8.5 B1u   1  4f2+         1.138450     1.000000
    9.5 B1u   1  4f0          3.352552     1.000000
   10.5 B1u   1  4f2+         3.352552     1.000000
    1.6 B2g   1  3d1+        89.989649     0.000051   -0.000038    0.000000
    2.6 B2g                  33.132961     0.004804   -0.004590    0.000000
    3.6 B2g                  15.879656     0.029485   -0.027563    0.000000
                              7.465803     0.086249   -0.082775    0.000000
                              3.551993     0.179728   -0.173494    0.000000
                              1.728185     0.261850   -0.236188    0.000000
                              0.850498     0.291794   -0.149226    0.000000
                              0.417673     0.259356    0.044145    0.000000
                              0.201523     0.174944    0.390500    0.000000
                              0.100711     0.062278    0.203064    0.000000
                              0.058959     0.027653    0.398002    1.000000
    4.6 B2g   1  3d1+         0.749306     1.000000
    5.6 B2g   1  3d1+         1.799378     1.000000
    1.7 B3g   1  3d1-        89.989649     0.000051   -0.000038    0.000000
    2.7 B3g                  33.132961     0.004804   -0.004590    0.000000
    3.7 B3g                  15.879656     0.029485   -0.027563    0.000000
                              7.465803     0.086249   -0.082775    0.000000
                              3.551993     0.179728   -0.173494    0.000000
                              1.728185     0.261850   -0.236188    0.000000
                              0.850498     0.291794   -0.149226    0.000000
                              0.417673     0.259356    0.044145    0.000000
                              0.201523     0.174944    0.390500    0.000000
                              0.100711     0.062278    0.203064    0.000000
                              0.058959     0.027653    0.398002    1.000000
    4.7 B3g   1  3d1-         0.749306     1.000000
    5.7 B3g   1  3d1-         1.799378     1.000000
    1.8 Au    1  4f2-         1.138450     1.000000
    2.8 Au    1  4f2-         3.352552     1.000000

 NUCLEAR CHARGE:                   13
 NUMBER OF PRIMITIVE AOS:         158
 NUMBER OF SYMMETRY AOS:          139
 NUMBER OF CONTRACTIONS:           63   (  16Ag  +  10B3u +  10B2u +   5B1g +  10B1u +   5B2g +   5B3g +   2Au  )
 NUMBER OF CORE ORBITALS:           4   (   1Ag  +   1B3u +   1B2u +   0B1g +   1B1u +   0B2g +   0B3g +   0Au  )
 NUMBER OF VALENCE ORBITALS:        6   (   3Ag  +   0B3u +   0B2u +   1B1g +   0B1u +   1B2g +   1B3g +   0Au  )


 NUCLEAR REPULSION ENERGY    0.00000000

 EXTRA SYMMETRY OF AOS IN SYMMETRY 1:   1 1 1 1 1 1 2 3 2 3   2 3 2 3 2 3
 EXTRA SYMMETRY OF AOS IN SYMMETRY 2:   1 1 1 1 1 1 2 3 2 3
 EXTRA SYMMETRY OF AOS IN SYMMETRY 3:   1 1 1 1 1 1 2 3 2 3
 EXTRA SYMMETRY OF AOS IN SYMMETRY 5:   1 1 1 1 1 1 2 3 2 3

 Eigenvalues of metric

         1 0.589E-02 0.342E-01 0.342E-01 0.421E-01 0.828E-01 0.828E-01 0.285E+00 0.351E+00
         2 0.499E-02 0.119E+00 0.159E+00 0.466E+00 0.466E+00 0.920E+00 0.153E+01 0.153E+01
         3 0.499E-02 0.119E+00 0.159E+00 0.466E+00 0.466E+00 0.920E+00 0.153E+01 0.153E+01
         4 0.342E-01 0.828E-01 0.351E+00 0.184E+01 0.269E+01
         5 0.499E-02 0.119E+00 0.159E+00 0.466E+00 0.466E+00 0.920E+00 0.153E+01 0.153E+01
         6 0.342E-01 0.828E-01 0.351E+00 0.184E+01 0.269E+01
         7 0.342E-01 0.828E-01 0.351E+00 0.184E+01 0.269E+01
         8 0.466E+00 0.153E+01


 Contracted 2-electron integrals neglected if value below      1.0D-12
 AO integral compression algorithm  1   Integral accuracy      1.0D-12

     3.408 MB (compressed) written to integral file ( 73.3%)


 NUMBER OF SORTED TWO-ELECTRON INTEGRALS:     280021.     BUFFER LENGTH:  32768
 NUMBER OF SEGMENTS:   1  SEGMENT LENGTH:     280021      RECORD LENGTH: 524288

 Memory used in sort:       0.84 MW

 SORT1 READ      606445. AND WROTE      231448. INTEGRALS IN      1 RECORDS. CPU TIME:     0.02 SEC, REAL TIME:     0.03 SEC
 SORT2 READ      231448. AND WROTE      280021. INTEGRALS IN     13 RECORDS. CPU TIME:     0.03 SEC, REAL TIME:     0.07 SEC

 FILE SIZES:   FILE 1:    22.6 MBYTE,  FILE 4:     4.2 MBYTE,   TOTAL:     26.8 MBYTE

 OPERATOR DM      FOR CENTER  0  COORDINATES:    0.000000    0.000000    0.000000
 OPERATOR EKIN    FOR CENTER  0  COORDINATES:    0.000000    0.000000    0.000000
 OPERATOR POT     FOR CENTER  0  COORDINATES:    0.000000    0.000000    0.000000


 **********************************************************************************************************************************
 DATASETS  * FILE   NREC   LENGTH (MB)   RECORD NAMES
              1      20       20.76       500      610      700      900      950      970     1000      129      960     1100   
                                          VAR    BASINP    GEOM    SYMINP    ZMAT    AOBASIS   BASIS     P2S    ABASIS      S 
                                         1400     1410     1420     1200     1210     1080     1600     1650     1300     1700   
                                         EKIN       V       ECP      H0       H01     AOSYM     SMH    MOLCAS    ERIS     OPER   

 PROGRAMS   *        TOTAL       INT
 CPU TIMES  *         1.46      1.25
 REAL TIME  *         3.31 SEC
 DISK USED  *        27.11 MB      
 **********************************************************************************************************************************


 PROGRAM * RHF-SCF (OPEN SHELL)       Authors: W. Meyer, H.-J. Werner


 NUMBER OF ELECTRONS:       8+    5-    SPACE SYMMETRY=6    SPIN SYMMETRY: Quartet 
 CONVERGENCE THRESHOLDS:    1.00E-05 (Density)    1.00E-07 (Energy)
 MAX. NUMBER OF ITERATIONS:       60
 INTERPOLATION TYPE:            DIIS
 INTERPOLATION STEPS:              2 (START)      1 (STEP)
 LEVEL SHIFTS:                 -0.60 (CLOSED) -0.30 (OPEN) 


 Singly occupied orbitals:      3.1       4.1       1.6
 
 Extra symmetries of mos in symmetry 1:   1   1

   Atom=V  basis=ECP10MDF_GUESS    lmin=0  lmax=2

 Orbital guess generated from atomic densities. Full valence occupancy:    4   1   1   1   1   1   1   0


 Molecular orbital dump at record        2100.2

 ITERATION    DDIFF          GRAD             ENERGY        2-EL.EN.            DIPOLE MOMENTS         DIIS   ORB.
    1      0.000D+00      0.000D+00       -70.71003542     94.279992    0.00000    0.00000    0.00000    0    start
    2      0.000D+00      0.332D-01       -70.86078397    100.722660    0.00000    0.00000    0.00000    1    diag,B
    3      0.205D-01      0.189D-01       -70.87645980    100.376522    0.00000    0.00000    0.00000    2    diag,B
    4      0.691D-02      0.752D-02       -70.88542253    100.563402    0.00000    0.00000    0.00000    3    diag,B
    5      0.813D-02      0.160D-02       -70.88637769    100.624150    0.00000    0.00000    0.00000    4    diag,B
    6      0.404D-02      0.478D-03       -70.88647184    100.584425    0.00000    0.00000    0.00000    5    diag,B
    7      0.187D-02      0.235D-03       -70.88650528    100.547946    0.00000    0.00000    0.00000    6    fixocc
    8      0.251D-02      0.109D-03       -70.88651356    100.529575    0.00000    0.00000    0.00000    7    diag,B
    9      0.221D-02      0.257D-04       -70.88651391    100.525432    0.00000    0.00000    0.00000    8    diag,B
   10      0.541D-03      0.346D-05       -70.88651391    100.525494    0.00000    0.00000    0.00000    9    orth
   11      0.193D-04      0.138D-05       -70.88651392    100.525471    0.00000    0.00000    0.00000    9    diag,B
   12      0.437D-05      0.808D-06       -70.88650990    100.524425    0.00000    0.00000    0.00000    0    orth

 Final alpha occupancy:   4   1   1   0   1   1   0   0
 Final beta  occupancy:   2   1   1   0   1   0   0   0

 !RHF STATE 1.6 Energy                -70.886509903826
 Nuclear energy                         0.00000000
 One-electron energy                 -121.14872239
 Two-electron energy                   50.26221248
 Virial quotient                       -2.05201655
 !RHF STATE 1.6 Dipole moment           0.00000000     0.00000000     0.00000000
 Dipole moment /Debye                   0.00000000     0.00000000     0.00000000
 

 !RHF expec          <1.6|EKIN|1.6>    34.544804192980
 
 !RHF expec           <1.6|POT|1.6>   -12.768829233111

 ELECTRON ORBITALS
 =================


   Orb  Occ    Energy  Couls-En    Coefficients

                                   1 1s      1 1s      1 1s      1 1s      1 1s      1 1s      1 3d0     1 3d2+    1 3d0     1 3d2+ 
                                   1 3d0     1 3d2+    1 3d0     1 3d2+    1 3d0     1 3d2+ 

   1.1   2    -3.2343  -15.1576  0.999653 -0.000184  0.000080  0.000093  0.000294 -0.000117 -0.006396 -0.011078  0.002085  0.003611
                                -0.000852 -0.001475  0.000291  0.000503 -0.001159 -0.002007

   2.1   2    -0.2326   -4.2552 -0.000275  0.999852 -0.000361 -0.000170  0.000262 -0.000098 -0.010621 -0.018397 -0.008034 -0.013916
                                 0.000597  0.001035  0.001027  0.001779  0.000466  0.000807

   3.1   +    -0.5351   -8.9532  0.017688  0.016914  0.003876 -0.000059 -0.003761  0.001498  0.490334  0.849284 -0.044465 -0.077015
                                 0.003352  0.005805  0.006636  0.011494  0.000431  0.000747

   4.1   +    -0.4802   -8.8113  0.000000 -0.000000  0.000000  0.000000 -0.000000  0.000000  0.857906 -0.495312 -0.051915  0.029973
                                -0.001034  0.000597  0.007676 -0.004432 -0.000849  0.000490

                                   1 2px     1 2px     1 2px     1 2px     1 2px     1 2px     1 4f1+    1 4f3+    1 4f1+    1 4f3+ 


   1.2   2    -2.0296  -12.7234  1.020963  0.034165 -0.024146 -0.009037 -0.021556  0.001741  0.000633  0.002453  0.000145  0.000562

                                   1 2py     1 2py     1 2py     1 2py     1 2py     1 2py     1 4f1-    1 4f3-    1 4f1-    1 4f3- 


   1.3   2    -2.0381  -12.7388  1.016161  0.029074 -0.021204 -0.007441 -0.016290  0.000836 -0.006394 -0.008255 -0.002554 -0.003297

                                   1 2pz     1 2pz     1 2pz     1 2pz     1 2pz     1 2pz     1 4f0     1 4f2+    1 4f0     1 4f2+ 


   1.5   2    -2.0296  -12.7234  1.020963  0.034165 -0.024146 -0.009037 -0.021556  0.001741  0.001551  0.002003  0.000355  0.000459

                                   1 3d1+    1 3d1+    1 3d1+    1 3d1+    1 3d1+ 

   1.6   +    -0.4802   -8.8113  0.990625 -0.059946 -0.001194  0.008864 -0.000981

 HOMO      4.1    -0.480174 =     -13.0662eV
 LUMO      2.3     0.029107 =       0.7921eV
 LUMO-HOMO         0.509282 =      13.8583eV


 **********************************************************************************************************************************
 DATASETS  * FILE   NREC   LENGTH (MB)   RECORD NAMES
              1      20       20.76       500      610      700      900      950      970     1000      129      960     1100   
                                          VAR    BASINP    GEOM    SYMINP    ZMAT    AOBASIS   BASIS     P2S    ABASIS      S 
                                         1400     1410     1420     1200     1210     1080     1600     1650     1300     1700   
                                         EKIN       V       ECP      H0       H01     AOSYM     SMH    MOLCAS    ERIS     OPER   

              2       4        2.77       700     1000      520     2100   
                                         GEOM     BASIS   MCVARS     RHF  

 PROGRAMS   *        TOTAL        HF       INT
 CPU TIMES  *         1.52      0.06      1.25
 REAL TIME  *         3.66 SEC
 DISK USED  *        27.11 MB      
 **********************************************************************************************************************************
 SETTING SCF(I)         =       -70.88650990  AU                              
 SETTING _CC_NORM_MAX   =         2.00000000                                  


 PROGRAM * CI (Multireference internally contracted CI)     Authors: H.-J. Werner, P.J. Knowles, 1987


 Convergence thresholds:  THRVAR = 1.00D-08  THRDEN = 1.00D-06

 Number of optimized states:  1  Roots:   1
 Number of reference states:  1  Roots:   1

 Reference symmetry:                   6   Quartet 
 Number of electrons:                 13
 Maximum number of shells:             3
 Maximum number of spin couplings:    14

 Reference space:        1 conf        1 CSFs
 N elec internal:       46 conf       46 CSFs
 N-1 el internal:       83 conf      188 CSFs
 N-2 el internal:       33 conf      223 CSFs

 Number of electrons in valence space:                     13
 Maximum number of open shell orbitals in reference space:  3
 Maximum number of open shell orbitals in internal spaces:  7


 Number of closed-shell orbitals:   5 (   2   1   1   0   1   0   0   0 )
 Number of active  orbitals:        3 (   2   0   0   0   0   1   0   0 )
 Number of external orbitals:      55 (  12   9   9   5   9   4   5   2 )

 Molecular orbitals read from record     2100.2  Type=RHF/CANONICAL (state 1.6)

 Integral transformation finished. Total CPU:   0.00 sec, npass=  1  Memory used:   0.08 MW

 Number of p-space configurations:   1

 Reference wavefunction optimized for reference space (refopt=1)

 State     Reference Energy 
   1         -70.88650990

 Number of blocks in overlap matrix:    58   Smallest eigenvalue:  0.10D+01
 Number of N-2 electron functions:      58
 Number of N-1 electron functions:     188

 Number of internal configurations:                    8
 Number of singly external configurations:          1490
 Number of doubly external configurations:         11786
 Total number of contracted configurations:        13284
 Total number of uncontracted configurations:      45540

 Diagonal Coupling coefficients finished.               Storage:   13677 words, CPU-Time:      0.00 seconds.
 Energy denominators for pairs finished in 1 passes.    Storage:   15613 words, CPU-time:      0.00 seconds.

  ITER. STATE  ROOT     SQ.NORM     CORR.ENERGY   TOTAL ENERGY   ENERGY CHANGE       DEN1      VAR(S)    VAR(P)      TIME
    1     1     1     1.00000000     0.00000000   -70.88650990     0.00000000    -0.45367359  0.27D-01  0.96D-01     0.02
    2     1     1     1.08849267    -0.38942478   -71.27593469    -0.38942478    -0.00897608  0.16D-02  0.22D-02     0.06
    3     1     1     1.08049514    -0.39868204   -71.28519194    -0.00925726    -0.00028306  0.24D-04  0.89D-04     0.09
    4     1     1     1.08073390    -0.39900484   -71.28551475    -0.00032280    -0.00002832  0.30D-05  0.12D-04     0.14
    5     1     1     1.08132129    -0.39904725   -71.28555716    -0.00004241    -0.00000731  0.53D-06  0.31D-05     0.18
    6     1     1     1.08158514    -0.39905953   -71.28556943    -0.00001227    -0.00000132  0.18D-06  0.50D-06     0.23
    7     1     1     1.08160206    -0.39906110   -71.28557100    -0.00000157    -0.00000011  0.11D-07  0.32D-07     0.26
    8     1     1     1.08160889    -0.39906122   -71.28557112    -0.00000012    -0.00000001  0.54D-09  0.22D-08     0.30


 =====================================
 Analysis of CPU times by interactions
 =====================================

       I      S      P

 I   0.0%
 S   0.0%  30.0%
 P   0.0%  16.7%  20.0%

 Initialization:   6.7%
 Other:           26.7%

 Total CPU:        0.3 seconds
 =====================================



 Reference coefficients greater than 0.0500000
 =============================================
 22//222/           0.9610790



 RESULTS FOR STATE 1.6
 =====================

 Coefficient of reference function:   C(0) = 0.96107896 (fixed)   0.96107896 (relaxed)

 Energy contributions of configuration classes

 CLASS          SQ.NORM        ECORR1        ECORR2
 +++++++++++++++++++++++++++++++++++++++++++++++++++
 Internals    0.00094823   -0.00454343   -0.00454616
 Singles      0.01730770   -0.08330894   -0.08333030
 Pairs        0.06437858   -0.31120885   -0.31118475
 Total        1.08263451   -0.39906122   -0.39906122
 +++++++++++++++++++++++++++++++++++++++++++++++++++


 Reference energy                     -70.88650990
 Nuclear energy                         0.00000000
 Kinetic energy                        34.94715367
 One electron energy                 -120.94442682
 Two electron energy                   49.65885569
 Virial quotient                       -2.03981050
 Correlation energy                    -0.39906122
 !CI(SD) STATE 1.6 Energy             -71.285571124443

 Properties without orbital relaxation:

 !CI(SD) STATE 1.6 Dipole moment        0.00000000     0.00000000     0.00000000
 Dipole moment /Debye                   0.00000000     0.00000000     0.00000000

 Cluster corrected energies           -71.31854735 (Davidson, fixed reference)
 Cluster corrected energies           -71.31854735 (Davidson, relaxed reference)

 Cluster corrected energies           -71.31329484 (Pople, fixed reference)
 Cluster corrected energies           -71.31329484 (Pople, relaxed reference)

 

 !CI(SD) expec       <1.6|EKIN|1.6>    34.947153671585
 
 !CI(SD) expec        <1.6|POT|1.6>   -12.784772578860


 **********************************************************************************************************************************
 DATASETS  * FILE   NREC   LENGTH (MB)   RECORD NAMES
              1      21       21.03       500      610      700      900      950      970     1000      129      960     1100   
                                          VAR    BASINP    GEOM    SYMINP    ZMAT    AOBASIS   BASIS     P2S    ABASIS      S 
                                         1400     1410     1420     1200     1210     1080     1600     1650     1300     1700   
                                         EKIN       V       ECP      H0       H01     AOSYM     SMH    MOLCAS    ERIS     OPER   
                                         1380   
                                         JKOP   

              2       4        2.77       700     1000      520     2100   
                                         GEOM     BASIS   MCVARS     RHF  

 PROGRAMS   *        TOTAL        CI        HF       INT
 CPU TIMES  *         1.85      0.33      0.06      1.25
 REAL TIME  *         4.79 SEC
 DISK USED  *        27.11 MB      
 **********************************************************************************************************************************
 SETTING POSTHF(I)      =       -71.28557112  AU                              
                                                                                                                                                                                                                                                                

        SCF            POSTHF        EKIN           POT
    -70.88650990   -71.28557112   34.94715367   -12.78477258
                                                  

 CI/USERDEF energy=    -71.285571124443

        CI              HF-SCF  
    -71.28557112    -70.88650990
 **********************************************************************************************************************************
 Variable memory released
