
 Primary working directories    : /global/cscratch1/sd/aannabe
 Secondary working directories  : /global/cscratch1/sd/aannabe
 Wavefunction directory         : /global/homes/a/aannabe/wfu/
 Main file repository           : /global/cscratch1/sd/aannabe/

 SHA1      : 2873118e99aab1bc19f5b6fc1784693c06d15c95
 NAME      : 2015.1.8
 ARCHNAME  : linux/x86_64
 FC        : /opt/cray/pe/craype/2.5.5/bin/ftn
 BLASLIB   : -Wl,-_start-group /opt/intel/compilers_and_libraries_2016.3.210/linux/mkl/lib/intel64/libmkl_intel_ilp64.a /opt/intel/compilers_and_libraries_2016.3.210/linux/mkl/lib/intel64/libmkl_intel_thread.a /opt/intel/compilers_and_libraries_2016.3.210/linux/mkl/lib/intel64/libmkl_core.a -Wl,-_end-group
 id        : lbl

 Nodes     nprocs
 nid00521     1

 Using customized tuning parameters: mindgm=8; mindgv=16; mindgc=4; mindgr=1; noblas=0; minvec=7
 default implementation of scratch files=df  

 ***,V
 memory,512,m
 gthresh,twoint=1.e-12
 
 gprint,basis,orbitals
 gexpec,ekin,pot
 
 angstrom
 geometry={
 1                                                                               ! Number of atoms
 V 0.0 0.0 0.0
 }
 
 basis={
 Including file /global/homes/a/aannabe/docs/accurate/ccECP_D2h/pps/V.pp
                                              !include,/global/homes/a/aannabe/docs/accurate/ccECP_D2h/basis/aug-cc-pVnZ/V_qz.basis
 Including file /global/homes/a/aannabe/docs/accurate/ccECP_D2h/basis/cc-pVnZ/V_qz.basis
 }
 
 {hf
 wf,13,6,3
 occ,4,1,1,0,1,1,0,0
 open,3.1,4.1,1.6
 sym,1,1,1
 }
 scf(i)=energy
 
 _CC_NORM_MAX=2.0
 {ci
 maxit,100
 core
 }
 posthf(i)=energy
 
 table,scf,posthf,ekin,pot
 save,4.csv,new
 
 

 Variables initialized (889), CPU time= 0.00 sec
 Commands  initialized (702), CPU time= 0.01 sec, 572 directives.
 Default parameters read. Elapsed time= 0.15 sec

 Checking input...
 Passed
1


                                         ***  PROGRAM SYSTEM MOLPRO  ***
                                       Copyright, TTI GmbH Stuttgart, 2015
                                    Version 2015.1 linked Sep  7 2016 23:09:38


 **********************************************************************************************************************************
 LABEL *   V                                                                             
  64 bit serial version                                                                  DATE: 13-Nov-18          TIME: 22:26:08  
 **********************************************************************************************************************************

 SHA1:             2873118e99aab1bc19f5b6fc1784693c06d15c95
 **********************************************************************************************************************************

 THRESHOLDS:

 ZERO    =  1.00D-12  ONEINT  =  1.00D-12  TWOINT  =  1.00D-12  PREFAC  =  1.00D-14  LOCALI  =  1.00D-09  EORDER  =  1.00D-04
 ENERGY  =  0.00D+00  ETEST   =  0.00D+00  EDENS   =  0.00D+00  THRDEDEF=  1.00D-06  GRADIENT=  1.00D-02  STEP    =  1.00D-03
 ORBITAL =  1.00D-05  CIVEC   =  1.00D-05  COEFF   =  1.00D-04  PRINTCI =  5.00D-02  PUNCHCI =  9.90D+01  OPTGRAD =  3.00D-04
 OPTENERG=  1.00D-06  OPTSTEP =  3.00D-04  THRGRAD =  1.00D-10  COMPRESS=  1.00D-11  VARMIN  =  1.00D-07  VARMAX  =  1.00D-03
 THRDOUB =  0.00D+00  THRDIV  =  1.00D-05  THRRED  =  1.00D-07  THRPSP  =  1.00D+00  THRDC   =  1.00D-10  THRCS   =  1.00D-10
 THRNRM  =  1.00D-08  THREQ   =  0.00D+00  THRDE   =  1.00D+00  THRREF  =  1.00D-05  SPARFAC =  1.00D+00  THRDLP  =  1.00D-07
 THRDIA  =  1.00D-10  THRDLS  =  1.00D-07  THRGPS  =  0.00D+00  THRKEX  =  0.00D+00  THRDIS  =  2.00D-01  THRVAR  =  1.00D-10
 THRLOC  =  1.00D-06  THRGAP  =  1.00D-06  THRLOCT = -1.00D+00  THRGAPT = -1.00D+00  THRORB  =  1.00D-06  THRMLTP =  0.00D+00
 THRCPQCI=  1.00D-10  KEXTA   =  0.00D+00  THRCOARS=  0.00D+00  SYMTOL  =  1.00D-06  GRADTOL =  1.00D-06  THROVL  =  1.00D-08
 THRORTH =  1.00D-08  GRID    =  1.00D-06  GRIDMAX =  1.00D-03  DTMAX   =  0.00D+00  THROCCDE=  1.00D-01  THROCCDE=  1.00D-01



 ZUNIT=ANG
 

Geometry recognized as XYZ


 Variable memory set to  512000000 words,  buffer space   230000 words

 SETTING BASIS          =    USERDEF


 Recomputing integrals since basis changed


 Using spherical harmonics



 PROGRAM * SEWARD (Integral evaluation for generally contracted gaussian basis sets)     Author: Roland Lindh, 1990

 Geometry written to block  1 of record 700

 Orientation using atomic masses  
 Molecule type: Atom
 Symmetry elements: X,Y,Z
 Rotational constants:       0.0000000      0.0000000      0.0000000 GHz  (calculated with average atomic masses)

 Point group  D2h 



 ATOMIC COORDINATES

 NR  ATOM    CHARGE       X              Y              Z

   1  V      13.00    0.000000000    0.000000000    0.000000000


          V   CORE POTENTIAL

          d POTENTIAL

 POWERS             1              3              2              2
 EXPONENTIALS   20.32169       19.59698       17.33147       5.123207    
 COEFFICIENTS   13.00000       264.1820      -115.2929     -0.6628873    

          s - d POTENTIAL

 POWERS             2              2
 EXPONENTIALS   15.12502       6.298989    
 COEFFICIENTS   195.5671       22.88643    

          p - d POTENTIAL

 POWERS             2              2
 EXPONENTIALS   15.93855       5.740063    
 COEFFICIENTS   126.4212       16.03597    


 BASIS DATA

   Nr Sym  Nuc  Type         Exponents   Contraction coefficients

    1.1 Ag    1  1s          68.577621     0.000804   -0.000177   -0.000583   -0.000765   -0.003567    0.000000
    2.1 Ag                   34.937147    -0.011594    0.002791    0.009570    0.014529    0.010007    0.000000
    3.1 Ag                   17.939491     0.092209   -0.023650   -0.085606   -0.139618    0.040202    0.000000
    4.1 Ag                   11.262123    -0.045477    0.012504    0.048426    0.063073    0.343295    0.000000
    5.1 Ag                    6.776264    -0.287983    0.078761    0.331239    0.704193   -2.097022    0.000000
    6.1 Ag                    3.524091    -0.217648    0.054974    0.140352   -0.011602    2.804039    0.000000
                              1.938421     0.407509   -0.118955   -0.907962   -2.311604    1.206638    0.000000
                              0.927153     0.658193   -0.245341   -0.503878    0.768269   -4.505724    0.000000
                              0.448420     0.255234   -0.222959    0.398938    2.168920    2.158325    0.000000
                              0.209668     0.008620    0.047809    0.971131   -1.062671    2.129892    0.000000
                              0.103660     0.002734    0.415374    0.423999   -1.218151   -2.265037    0.000000
                              0.050630    -0.001161    0.540880   -0.628646    0.340809   -0.681051    0.000000
                              0.024201     0.000294    0.183421   -0.467495    0.713322    1.257862    1.000000
    7.1 Ag    1  1s           0.820525     1.000000
    8.1 Ag    1  1s           1.521457     1.000000
    9.1 Ag    1  3d0         89.989649     0.000051
                             33.132961     0.004804
                             15.879656     0.029485
                              7.465803     0.086249
                              3.551993     0.179728
                              1.728185     0.261850
                              0.850498     0.291794
                              0.417673     0.259356
                              0.201523     0.174944
                              0.100711     0.062278
                              0.058959     0.027653
   10.1 Ag    1  3d2+        89.989649     0.000051
                             33.132961     0.004804
                             15.879656     0.029485
                              7.465803     0.086249
                              3.551993     0.179728
                              1.728185     0.261850
                              0.850498     0.291794
                              0.417673     0.259356
                              0.201523     0.174944
                              0.100711     0.062278
                              0.058959     0.027653
   11.1 Ag    1  3d0         89.989649    -0.000038
                             33.132961    -0.004590
                             15.879656    -0.027563
                              7.465803    -0.082775
                              3.551993    -0.173494
                              1.728185    -0.236188
                              0.850498    -0.149226
                              0.417673     0.044145
                              0.201523     0.390500
                              0.100711     0.203064
                              0.058959     0.398002
   12.1 Ag    1  3d2+        89.989649    -0.000038
                             33.132961    -0.004590
                             15.879656    -0.027563
                              7.465803    -0.082775
                              3.551993    -0.173494
                              1.728185    -0.236188
                              0.850498    -0.149226
                              0.417673     0.044145
                              0.201523     0.390500
                              0.100711     0.203064
                              0.058959     0.398002
   13.1 Ag    1  3d0         89.989649     0.000128
                             33.132961     0.006652
                             15.879656     0.044635
                              7.465803     0.122559
                              3.551993     0.311147
                              1.728185     0.288813
                              0.850498    -0.142246
                              0.417673    -0.613737
                              0.201523    -0.123916
                              0.100711    -0.020235
                              0.058959     0.733259
   14.1 Ag    1  3d2+        89.989649     0.000128
                             33.132961     0.006652
                             15.879656     0.044635
                              7.465803     0.122559
                              3.551993     0.311147
                              1.728185     0.288813
                              0.850498    -0.142246
                              0.417673    -0.613737
                              0.201523    -0.123916
                              0.100711    -0.020235
                              0.058959     0.733259
   15.1 Ag    1  3d0         89.989649     0.000045
                             33.132961    -0.010394
                             15.879656    -0.055051
                              7.465803    -0.171457
                              3.551993    -0.519922
                              1.728185     0.099026
                              0.850498     0.829332
                              0.417673    -0.070908
                              0.201523    -0.471171
                              0.100711    -0.878789
                              0.058959     1.211747
   16.1 Ag    1  3d2+        89.989649     0.000045
                             33.132961    -0.010394
                             15.879656    -0.055051
                              7.465803    -0.171457
                              3.551993    -0.519922
                              1.728185     0.099026
                              0.850498     0.829332
                              0.417673    -0.070908
                              0.201523    -0.471171
                              0.100711    -0.878789
                              0.058959     1.211747
   17.1 Ag    1  3d0         89.989649     0.000000
                             33.132961     0.000000
                             15.879656     0.000000
                              7.465803     0.000000
                              3.551993     0.000000
                              1.728185     0.000000
                              0.850498     0.000000
                              0.417673     0.000000
                              0.201523     0.000000
                              0.100711     0.000000
                              0.058959     1.000000
   18.1 Ag    1  3d2+        89.989649     0.000000
                             33.132961     0.000000
                             15.879656     0.000000
                              7.465803     0.000000
                              3.551993     0.000000
                              1.728185     0.000000
                              0.850498     0.000000
                              0.417673     0.000000
                              0.201523     0.000000
                              0.100711     0.000000
                              0.058959     1.000000
   19.1 Ag    1  3d0          3.248775     1.000000
   20.1 Ag    1  3d2+         3.248775     1.000000
   21.1 Ag    1  3d0          2.679882     1.000000
   22.1 Ag    1  3d2+         2.679882     1.000000
   23.1 Ag    1  5g0          0.946128     1.000000
   24.1 Ag    1  5g4+         0.946128     1.000000
   25.1 Ag    1  5g2+         0.946128     1.000000
   26.1 Ag    1  5g0          3.081804     1.000000
   27.1 Ag    1  5g4+         3.081804     1.000000
   28.1 Ag    1  5g2+         3.081804     1.000000
   29.1 Ag    1  5g0          3.899112     1.000000
   30.1 Ag    1  5g4+         3.899112     1.000000
   31.1 Ag    1  5g2+         3.899112     1.000000
    1.2 B3u   1  2px         96.215967     0.000069    0.000040   -0.000053   -0.001262   -0.004780    0.000000
    2.2 B3u                  49.579340    -0.000672   -0.000133    0.000023    0.006419    0.025312    0.000000
    3.2 B3u                  25.638009     0.008199   -0.000955    0.004629   -0.021229   -0.094267    0.000000
    4.2 B3u                  14.025942    -0.027108    0.003719   -0.007755    0.115777    0.437896    0.000000
    5.2 B3u                   8.740334    -0.053021    0.018866   -0.104133   -0.420740   -1.443166    0.000000
    6.2 B3u                   4.634840     0.005002   -0.012074   -0.017762    0.197742    2.636780    0.000000
                              2.553374     0.261986   -0.057107    0.728212    1.575600   -0.382436    0.000000
                              1.321166     0.433544   -0.146433    0.218826   -1.067913   -2.761881    0.000000
                              0.681285     0.324947   -0.067365   -0.493223   -1.310083    2.159756    0.000000
                              0.349458     0.092342   -0.068254   -0.838192    1.191147    0.676151    0.000000
                              0.172773     0.008964    0.403103    0.398401    0.550516   -1.621517    0.000000
                              0.063300     0.001185    0.502668    0.664589   -0.718788    0.429164    0.000000
                              0.033969     0.000104    0.261291    0.033011   -0.157441    0.400178    1.000000
    7.2 B3u   1  2px          2.371806     1.000000
    8.2 B3u   1  2px          5.892088     1.000000
    9.2 B3u   1  4f1+         0.309164     1.000000
   10.2 B3u   1  4f3+         0.309164     1.000000
   11.2 B3u   1  4f1+         1.028253     1.000000
   12.2 B3u   1  4f3+         1.028253     1.000000
   13.2 B3u   1  4f1+         3.419885     1.000000
   14.2 B3u   1  4f3+         3.419885     1.000000
   15.2 B3u   1  4f1+         2.371670     1.000000
   16.2 B3u   1  4f3+         2.371670     1.000000
   17.2 B3u   1  6h1+         2.514905     1.000000
   18.2 B3u   1  6h3+         2.514905     1.000000
   19.2 B3u   1  6h5+         2.514905     1.000000
   20.2 B3u   1  6h1+         4.872470     1.000000
   21.2 B3u   1  6h3+         4.872470     1.000000
   22.2 B3u   1  6h5+         4.872470     1.000000
    1.3 B2u   1  2py         96.215967     0.000069    0.000040   -0.000053   -0.001262   -0.004780    0.000000
    2.3 B2u                  49.579340    -0.000672   -0.000133    0.000023    0.006419    0.025312    0.000000
    3.3 B2u                  25.638009     0.008199   -0.000955    0.004629   -0.021229   -0.094267    0.000000
    4.3 B2u                  14.025942    -0.027108    0.003719   -0.007755    0.115777    0.437896    0.000000
    5.3 B2u                   8.740334    -0.053021    0.018866   -0.104133   -0.420740   -1.443166    0.000000
    6.3 B2u                   4.634840     0.005002   -0.012074   -0.017762    0.197742    2.636780    0.000000
                              2.553374     0.261986   -0.057107    0.728212    1.575600   -0.382436    0.000000
                              1.321166     0.433544   -0.146433    0.218826   -1.067913   -2.761881    0.000000
                              0.681285     0.324947   -0.067365   -0.493223   -1.310083    2.159756    0.000000
                              0.349458     0.092342   -0.068254   -0.838192    1.191147    0.676151    0.000000
                              0.172773     0.008964    0.403103    0.398401    0.550516   -1.621517    0.000000
                              0.063300     0.001185    0.502668    0.664589   -0.718788    0.429164    0.000000
                              0.033969     0.000104    0.261291    0.033011   -0.157441    0.400178    1.000000
    7.3 B2u   1  2py          2.371806     1.000000
    8.3 B2u   1  2py          5.892088     1.000000
    9.3 B2u   1  4f1-         0.309164     1.000000
   10.3 B2u   1  4f3-         0.309164     1.000000
   11.3 B2u   1  4f1-         1.028253     1.000000
   12.3 B2u   1  4f3-         1.028253     1.000000
   13.3 B2u   1  4f1-         3.419885     1.000000
   14.3 B2u   1  4f3-         3.419885     1.000000
   15.3 B2u   1  4f1-         2.371670     1.000000
   16.3 B2u   1  4f3-         2.371670     1.000000
   17.3 B2u   1  6h1-         2.514905     1.000000
   18.3 B2u   1  6h3-         2.514905     1.000000
   19.3 B2u   1  6h5-         2.514905     1.000000
   20.3 B2u   1  6h1-         4.872470     1.000000
   21.3 B2u   1  6h3-         4.872470     1.000000
   22.3 B2u   1  6h5-         4.872470     1.000000
    1.4 B1g   1  3d2-        89.989649     0.000051   -0.000038    0.000128    0.000045    0.000000
    2.4 B1g                  33.132961     0.004804   -0.004590    0.006652   -0.010394    0.000000
    3.4 B1g                  15.879656     0.029485   -0.027563    0.044635   -0.055051    0.000000
    4.4 B1g                   7.465803     0.086249   -0.082775    0.122559   -0.171457    0.000000
    5.4 B1g                   3.551993     0.179728   -0.173494    0.311147   -0.519922    0.000000
                              1.728185     0.261850   -0.236188    0.288813    0.099026    0.000000
                              0.850498     0.291794   -0.149226   -0.142246    0.829332    0.000000
                              0.417673     0.259356    0.044145   -0.613737   -0.070908    0.000000
                              0.201523     0.174944    0.390500   -0.123916   -0.471171    0.000000
                              0.100711     0.062278    0.203064   -0.020235   -0.878789    0.000000
                              0.058959     0.027653    0.398002    0.733259    1.211747    1.000000
    6.4 B1g   1  3d2-         3.248775     1.000000
    7.4 B1g   1  3d2-         2.679882     1.000000
    8.4 B1g   1  5g2-         0.946128     1.000000
    9.4 B1g   1  5g4-         0.946128     1.000000
   10.4 B1g   1  5g2-         3.081804     1.000000
   11.4 B1g   1  5g4-         3.081804     1.000000
   12.4 B1g   1  5g2-         3.899112     1.000000
   13.4 B1g   1  5g4-         3.899112     1.000000
    1.5 B1u   1  2pz         96.215967     0.000069    0.000040   -0.000053   -0.001262   -0.004780    0.000000
    2.5 B1u                  49.579340    -0.000672   -0.000133    0.000023    0.006419    0.025312    0.000000
    3.5 B1u                  25.638009     0.008199   -0.000955    0.004629   -0.021229   -0.094267    0.000000
    4.5 B1u                  14.025942    -0.027108    0.003719   -0.007755    0.115777    0.437896    0.000000
    5.5 B1u                   8.740334    -0.053021    0.018866   -0.104133   -0.420740   -1.443166    0.000000
    6.5 B1u                   4.634840     0.005002   -0.012074   -0.017762    0.197742    2.636780    0.000000
                              2.553374     0.261986   -0.057107    0.728212    1.575600   -0.382436    0.000000
                              1.321166     0.433544   -0.146433    0.218826   -1.067913   -2.761881    0.000000
                              0.681285     0.324947   -0.067365   -0.493223   -1.310083    2.159756    0.000000
                              0.349458     0.092342   -0.068254   -0.838192    1.191147    0.676151    0.000000
                              0.172773     0.008964    0.403103    0.398401    0.550516   -1.621517    0.000000
                              0.063300     0.001185    0.502668    0.664589   -0.718788    0.429164    0.000000
                              0.033969     0.000104    0.261291    0.033011   -0.157441    0.400178    1.000000
    7.5 B1u   1  2pz          2.371806     1.000000
    8.5 B1u   1  2pz          5.892088     1.000000
    9.5 B1u   1  4f0          0.309164     1.000000
   10.5 B1u   1  4f2+         0.309164     1.000000
   11.5 B1u   1  4f0          1.028253     1.000000
   12.5 B1u   1  4f2+         1.028253     1.000000
   13.5 B1u   1  4f0          3.419885     1.000000
   14.5 B1u   1  4f2+         3.419885     1.000000
   15.5 B1u   1  4f0          2.371670     1.000000
   16.5 B1u   1  4f2+         2.371670     1.000000
   17.5 B1u   1  6h2+         2.514905     1.000000
   18.5 B1u   1  6h4+         2.514905     1.000000
   19.5 B1u   1  6h0          2.514905     1.000000
   20.5 B1u   1  6h2+         4.872470     1.000000
   21.5 B1u   1  6h4+         4.872470     1.000000
   22.5 B1u   1  6h0          4.872470     1.000000
    1.6 B2g   1  3d1+        89.989649     0.000051   -0.000038    0.000128    0.000045    0.000000
    2.6 B2g                  33.132961     0.004804   -0.004590    0.006652   -0.010394    0.000000
    3.6 B2g                  15.879656     0.029485   -0.027563    0.044635   -0.055051    0.000000
    4.6 B2g                   7.465803     0.086249   -0.082775    0.122559   -0.171457    0.000000
    5.6 B2g                   3.551993     0.179728   -0.173494    0.311147   -0.519922    0.000000
                              1.728185     0.261850   -0.236188    0.288813    0.099026    0.000000
                              0.850498     0.291794   -0.149226   -0.142246    0.829332    0.000000
                              0.417673     0.259356    0.044145   -0.613737   -0.070908    0.000000
                              0.201523     0.174944    0.390500   -0.123916   -0.471171    0.000000
                              0.100711     0.062278    0.203064   -0.020235   -0.878789    0.000000
                              0.058959     0.027653    0.398002    0.733259    1.211747    1.000000
    6.6 B2g   1  3d1+         3.248775     1.000000
    7.6 B2g   1  3d1+         2.679882     1.000000
    8.6 B2g   1  5g1+         0.946128     1.000000
    9.6 B2g   1  5g3+         0.946128     1.000000
   10.6 B2g   1  5g1+         3.081804     1.000000
   11.6 B2g   1  5g3+         3.081804     1.000000
   12.6 B2g   1  5g1+         3.899112     1.000000
   13.6 B2g   1  5g3+         3.899112     1.000000
    1.7 B3g   1  3d1-        89.989649     0.000051   -0.000038    0.000128    0.000045    0.000000
    2.7 B3g                  33.132961     0.004804   -0.004590    0.006652   -0.010394    0.000000
    3.7 B3g                  15.879656     0.029485   -0.027563    0.044635   -0.055051    0.000000
    4.7 B3g                   7.465803     0.086249   -0.082775    0.122559   -0.171457    0.000000
    5.7 B3g                   3.551993     0.179728   -0.173494    0.311147   -0.519922    0.000000
                              1.728185     0.261850   -0.236188    0.288813    0.099026    0.000000
                              0.850498     0.291794   -0.149226   -0.142246    0.829332    0.000000
                              0.417673     0.259356    0.044145   -0.613737   -0.070908    0.000000
                              0.201523     0.174944    0.390500   -0.123916   -0.471171    0.000000
                              0.100711     0.062278    0.203064   -0.020235   -0.878789    0.000000
                              0.058959     0.027653    0.398002    0.733259    1.211747    1.000000
    6.7 B3g   1  3d1-         3.248775     1.000000
    7.7 B3g   1  3d1-         2.679882     1.000000
    8.7 B3g   1  5g1-         0.946128     1.000000
    9.7 B3g   1  5g3-         0.946128     1.000000
   10.7 B3g   1  5g1-         3.081804     1.000000
   11.7 B3g   1  5g3-         3.081804     1.000000
   12.7 B3g   1  5g1-         3.899112     1.000000
   13.7 B3g   1  5g3-         3.899112     1.000000
    1.8 Au    1  4f2-         0.309164     1.000000
    2.8 Au    1  4f2-         1.028253     1.000000
    3.8 Au    1  4f2-         3.419885     1.000000
    4.8 Au    1  4f2-         2.371670     1.000000
    5.8 Au    1  6h4-         2.514905     1.000000
    6.8 Au    1  6h2-         2.514905     1.000000
    7.8 Au    1  6h4-         4.872470     1.000000
    8.8 Au    1  6h2-         4.872470     1.000000

 NUCLEAR CHARGE:                   13
 NUMBER OF PRIMITIVE AOS:         265
 NUMBER OF SYMMETRY AOS:          202
 NUMBER OF CONTRACTIONS:          144   (  31Ag  +  22B3u +  22B2u +  13B1g +  22B1u +  13B2g +  13B3g +   8Au  )
 NUMBER OF CORE ORBITALS:           4   (   1Ag  +   1B3u +   1B2u +   0B1g +   1B1u +   0B2g +   0B3g +   0Au  )
 NUMBER OF VALENCE ORBITALS:        6   (   3Ag  +   0B3u +   0B2u +   1B1g +   0B1u +   1B2g +   1B3g +   0Au  )


 NUCLEAR REPULSION ENERGY    0.00000000

 EXTRA SYMMETRY OF AOS IN SYMMETRY 1:   1 1 1 1 1 1 1 1 2 3   2 3 2 3 2 3 2 3 2 3   2 3 4 5 6 4 5 6 4 5   6
 EXTRA SYMMETRY OF AOS IN SYMMETRY 2:   1 1 1 1 1 1 1 1 2 3   2 3 2 3 2 3 4 5 6 4   5 6
 EXTRA SYMMETRY OF AOS IN SYMMETRY 3:   1 1 1 1 1 1 1 1 2 3   2 3 2 3 2 3 4 5 6 4   5 6
 EXTRA SYMMETRY OF AOS IN SYMMETRY 4:   1 1 1 1 1 1 1 2 3 2   3 2 3
 EXTRA SYMMETRY OF AOS IN SYMMETRY 5:   1 1 1 1 1 1 1 1 2 3   2 3 2 3 2 3 4 5 6 4   5 6
 EXTRA SYMMETRY OF AOS IN SYMMETRY 6:   1 1 1 1 1 1 1 2 3 2   3 2 3
 EXTRA SYMMETRY OF AOS IN SYMMETRY 7:   1 1 1 1 1 1 1 2 3 2   3 2 3
 EXTRA SYMMETRY OF AOS IN SYMMETRY 8:   1 1 1 1 2 3 2 3

 Eigenvalues of metric

         1 0.229E-03 0.548E-03 0.548E-03 0.495E-02 0.882E-02 0.882E-02 0.278E-01 0.278E-01
         2 0.520E-03 0.297E-01 0.297E-01 0.429E-01 0.143E+00 0.295E+00 0.295E+00 0.295E+00
         3 0.520E-03 0.297E-01 0.297E-01 0.429E-01 0.143E+00 0.295E+00 0.295E+00 0.295E+00
         4 0.548E-03 0.882E-02 0.278E-01 0.281E-01 0.281E-01 0.808E+00 0.808E+00 0.100E+01
         5 0.520E-03 0.297E-01 0.297E-01 0.429E-01 0.143E+00 0.295E+00 0.295E+00 0.295E+00
         6 0.548E-03 0.882E-02 0.278E-01 0.281E-01 0.281E-01 0.808E+00 0.808E+00 0.100E+01
         7 0.548E-03 0.882E-02 0.278E-01 0.281E-01 0.281E-01 0.808E+00 0.808E+00 0.100E+01
         8 0.297E-01 0.295E+00 0.295E+00 0.378E+00 0.110E+01 0.171E+01 0.171E+01 0.249E+01


 Contracted 2-electron integrals neglected if value below      1.0D-12
 AO integral compression algorithm  1   Integral accuracy      1.0D-12

     52.429 MB (compressed) written to integral file ( 56.6%)


 NUMBER OF SORTED TWO-ELECTRON INTEGRALS:    7063297.     BUFFER LENGTH:  32768
 NUMBER OF SEGMENTS:   1  SEGMENT LENGTH:    7063297      RECORD LENGTH: 524288

 Memory used in sort:       7.62 MW

 SORT1 READ    11599838. AND WROTE     4948094. INTEGRALS IN     15 RECORDS. CPU TIME:     0.37 SEC, REAL TIME:     0.53 SEC
 SORT2 READ     4948094. AND WROTE     7063297. INTEGRALS IN    200 RECORDS. CPU TIME:     0.27 SEC, REAL TIME:     0.57 SEC

 FILE SIZES:   FILE 1:    72.0 MBYTE,  FILE 4:    62.9 MBYTE,   TOTAL:    135.0 MBYTE

 OPERATOR DM      FOR CENTER  0  COORDINATES:    0.000000    0.000000    0.000000
 OPERATOR EKIN    FOR CENTER  0  COORDINATES:    0.000000    0.000000    0.000000
 OPERATOR POT     FOR CENTER  0  COORDINATES:    0.000000    0.000000    0.000000


 **********************************************************************************************************************************
 DATASETS  * FILE   NREC   LENGTH (MB)   RECORD NAMES
              1      20       50.67       500      610      700      900      950      970     1000      129      960     1100   
                                          VAR    BASINP    GEOM    SYMINP    ZMAT    AOBASIS   BASIS     P2S    ABASIS      S 
                                         1400     1410     1420     1200     1210     1080     1600     1650     1300     1700   
                                         EKIN       V       ECP      H0       H01     AOSYM     SMH    MOLCAS    ERIS     OPER   

 PROGRAMS   *        TOTAL       INT
 CPU TIMES  *         4.50      4.38
 REAL TIME  *         6.75 SEC
 DISK USED  *       135.29 MB      
 **********************************************************************************************************************************


 PROGRAM * RHF-SCF (OPEN SHELL)       Authors: W. Meyer, H.-J. Werner


 NUMBER OF ELECTRONS:       8+    5-    SPACE SYMMETRY=6    SPIN SYMMETRY: Quartet 
 CONVERGENCE THRESHOLDS:    1.00E-05 (Density)    1.00E-07 (Energy)
 MAX. NUMBER OF ITERATIONS:       60
 INTERPOLATION TYPE:            DIIS
 INTERPOLATION STEPS:              2 (START)      1 (STEP)
 LEVEL SHIFTS:                 -0.60 (CLOSED) -0.30 (OPEN) 


 Singly occupied orbitals:      3.1       4.1       1.6
 
 Extra symmetries of mos in symmetry 1:   1   1

   Atom=V  basis=ECP10MDF_GUESS    lmin=0  lmax=2

 Orbital guess generated from atomic densities. Full valence occupancy:    4   1   1   1   1   1   1   0


 Molecular orbital dump at record        2100.2

 ITERATION    DDIFF          GRAD             ENERGY        2-EL.EN.            DIPOLE MOMENTS         DIIS   ORB.
    1      0.000D+00      0.000D+00       -70.70541069     94.176467    0.00000    0.00000    0.00000    0    start
    2      0.000D+00      0.226D-01       -70.86054342    100.739908    0.00000    0.00000    0.00000    1    diag,B
    3      0.927D-02      0.128D-01       -70.87678671    100.374041    0.00000    0.00000    0.00000    2    diag,B
    4      0.238D-02      0.505D-02       -70.88587250    100.564230    0.00000    0.00000    0.00000    3    diag,B
    5      0.295D-02      0.109D-02       -70.88687891    100.626404    0.00000    0.00000    0.00000    4    diag,B
    6      0.195D-02      0.354D-03       -70.88699964    100.580663    0.00000    0.00000    0.00000    5    diag,B
    7      0.141D-02      0.154D-03       -70.88702922    100.540530    0.00000    0.00000    0.00000    6    fixocc
    8      0.547D-03      0.624D-04       -70.88703482    100.530549    0.00000    0.00000    0.00000    7    diag,B
    9      0.104D-02      0.299D-04       -70.88703629    100.523114    0.00000    0.00000    0.00000    8    diag,B
   10      0.951D-03      0.380D-05       -70.88703630    100.523107    0.00000    0.00000    0.00000    9    orth
   11      0.598D-04      0.978D-06       -70.88703630    100.523054    0.00000    0.00000    0.00000    9    diag,B
   12      0.427D-05      0.467D-06       -70.88703541    100.522529    0.00000    0.00000    0.00000    0    orth

 Final alpha occupancy:   4   1   1   0   1   1   0   0
 Final beta  occupancy:   2   1   1   0   1   0   0   0

 !RHF STATE 1.6 Energy                -70.887035414325
 Nuclear energy                         0.00000000
 One-electron energy                 -121.14829993
 Two-electron energy                   50.26126451
 Virial quotient                       -2.05225747
 !RHF STATE 1.6 Dipole moment           0.00000000     0.00000000     0.00000000
 Dipole moment /Debye                   0.00000000     0.00000000     0.00000000
 

 !RHF expec          <1.6|EKIN|1.6>    34.541004977164
 
 !RHF expec           <1.6|POT|1.6>   -12.768474256529

 ELECTRON ORBITALS
 =================


   Orb  Occ    Energy  Couls-En    Coefficients

                                   1 1s      1 1s      1 1s      1 1s      1 1s      1 1s      1 1s      1 1s      1 3d0     1 3d2+ 
                                   1 3d0     1 3d2+    1 3d0     1 3d2+    1 3d0     1 3d2+    1 3d0     1 3d2+    1 3d0     1 3d2+ 
                                   1 3d0     1 3d2+    1 5g0     1 5g4+    1 5g2+    1 5g0     1 5g4+    1 5g2+    1 5g0     1 5g4+ 
                                   1 5g2+ 

   1.1   2    -3.2343  -15.1576  0.999911 -0.000021  0.000059  0.000083  0.000017 -0.000078 -0.000031  0.000023 -0.007699 -0.013336
                                -0.000587 -0.001017 -0.002068 -0.003582 -0.000910 -0.001576  0.002852  0.004939  0.000246  0.000427
                                -0.000752 -0.001302  0.000539  0.001063  0.000804 -0.000004 -0.000007 -0.000006  0.000170  0.000334
                                 0.000253

   2.1   2    -0.2326   -4.2551 -0.000110  0.999681 -0.000375  0.000086 -0.000008  0.000002 -0.000100  0.000066 -0.010270 -0.017789
                                -0.007447 -0.012898  0.000180  0.000312  0.000646  0.001119 -0.000237 -0.000410  0.000156  0.000271
                                -0.000018 -0.000031  0.000021  0.000042  0.000032  0.000162  0.000319  0.000241 -0.000089 -0.000176
                                -0.000133

   3.1   +    -0.5360   -8.9536  0.014970  0.017803  0.003855 -0.000802  0.000015  0.001274 -0.000778  0.000436  0.494219  0.856013
                                -0.051155 -0.088604 -0.006005 -0.010402  0.001004  0.001738  0.010995  0.019044  0.000754  0.001306
                                -0.000503 -0.000871 -0.001862 -0.003673 -0.002776 -0.000531 -0.001046 -0.000791 -0.000174 -0.000343
                                -0.000259

   4.1   +    -0.4804   -8.8121 -0.000000 -0.000000  0.000000 -0.000000 -0.000000  0.000000  0.000000 -0.000000  0.859348 -0.496145
                                -0.065568  0.037856 -0.011020  0.006363 -0.000807  0.000466  0.015749 -0.009093  0.000101 -0.000058
                                -0.000264  0.000152  0.001529 -0.001809  0.001368  0.000384 -0.000455  0.000344  0.000160 -0.000189
                                 0.000143

                                   1 2px     1 2px     1 2px     1 2px     1 2px     1 2px     1 2px     1 2px     1 4f1+    1 4f3+ 
                                   1 4f1+    1 4f3+    1 4f1+    1 4f3+    1 4f1+    1 4f3+    1 6h1+    1 6h3+    1 6h5+    1 6h1+ 
                                   1 6h3+    1 6h5+ 

   1.2   2    -2.0297  -12.7234  0.995709  0.035020 -0.024015  0.003119  0.000748 -0.008177  0.006857 -0.001720  0.000519  0.002012
                                 0.000644  0.002495  0.000384  0.001485 -0.000264 -0.001023 -0.000035 -0.000113 -0.000252 -0.000006
                                -0.000020 -0.000045

                                   1 2py     1 2py     1 2py     1 2py     1 2py     1 2py     1 2py     1 2py     1 4f1-    1 4f3- 
                                   1 4f1-    1 4f3-    1 4f1-    1 4f3-    1 4f1-    1 4f3-    1 6h1-    1 6h3-    1 6h5-    1 6h1- 
                                   1 6h3-    1 6h5- 

   1.3   2    -2.0380  -12.7385  0.994818  0.031098 -0.022166  0.001846  0.000663 -0.007461  0.008048 -0.002213 -0.002135 -0.002756
                                -0.005764 -0.007442 -0.002607 -0.003366 -0.000485 -0.000626 -0.000149 -0.000161 -0.000216 -0.000033
                                -0.000036 -0.000048

                                   1 2pz     1 2pz     1 2pz     1 2pz     1 2pz     1 2pz     1 2pz     1 2pz     1 4f0     1 4f2+ 
                                   1 4f0     1 4f2+    1 4f0     1 4f2+    1 4f0     1 4f2+    1 6h2+    1 6h4+    1 6h0     1 6h2+ 
                                   1 6h4+    1 6h0  

   1.5   2    -2.0297  -12.7234  0.995709  0.035020 -0.024015  0.003119  0.000748 -0.008177  0.006857 -0.001720  0.001272  0.001642
                                 0.001578  0.002037  0.000939  0.001213 -0.000647 -0.000835 -0.000184 -0.000159 -0.000135 -0.000033
                                -0.000028 -0.000024

                                   1 3d1+    1 3d1+    1 3d1+    1 3d1+    1 3d1+    1 3d1+    1 3d1+    1 5g1+    1 5g3+    1 5g1+ 
                                   1 5g3+    1 5g1+    1 5g3+ 

   1.6   +    -0.4804   -8.8121  0.992289 -0.075711 -0.012725 -0.000932  0.018186  0.000117 -0.000305  0.000967  0.002559  0.000243
                                 0.000643  0.000101  0.000268

 HOMO      4.1    -0.480446 =     -13.0736eV
 LUMO      2.3     0.028260 =       0.7690eV
 LUMO-HOMO         0.508706 =      13.8426eV


 **********************************************************************************************************************************
 DATASETS  * FILE   NREC   LENGTH (MB)   RECORD NAMES
              1      20       50.67       500      610      700      900      950      970     1000      129      960     1100   
                                          VAR    BASINP    GEOM    SYMINP    ZMAT    AOBASIS   BASIS     P2S    ABASIS      S 
                                         1400     1410     1420     1200     1210     1080     1600     1650     1300     1700   
                                         EKIN       V       ECP      H0       H01     AOSYM     SMH    MOLCAS    ERIS     OPER   

              2       4        2.86       700     1000      520     2100   
                                         GEOM     BASIS   MCVARS     RHF  

 PROGRAMS   *        TOTAL        HF       INT
 CPU TIMES  *         4.86      0.36      4.38
 REAL TIME  *         7.34 SEC
 DISK USED  *       135.29 MB      
 **********************************************************************************************************************************
 SETTING SCF(I)         =       -70.88703541  AU                              
 SETTING _CC_NORM_MAX   =         2.00000000                                  


 PROGRAM * CI (Multireference internally contracted CI)     Authors: H.-J. Werner, P.J. Knowles, 1987


 Convergence thresholds:  THRVAR = 1.00D-08  THRDEN = 1.00D-06

 Number of optimized states:  1  Roots:   1
 Number of reference states:  1  Roots:   1

 Reference symmetry:                   6   Quartet 
 Number of electrons:                 13
 Maximum number of shells:             3
 Maximum number of spin couplings:    14

 Reference space:        1 conf        1 CSFs
 N elec internal:       46 conf       46 CSFs
 N-1 el internal:       83 conf      188 CSFs
 N-2 el internal:       33 conf      223 CSFs

 Number of electrons in valence space:                     13
 Maximum number of open shell orbitals in reference space:  3
 Maximum number of open shell orbitals in internal spaces:  7


 Number of closed-shell orbitals:   5 (   2   1   1   0   1   0   0   0 )
 Number of active  orbitals:        3 (   2   0   0   0   0   1   0   0 )
 Number of external orbitals:     136 (  27  21  21  13  21  12  13   8 )

 Molecular orbitals read from record     2100.2  Type=RHF/CANONICAL (state 1.6)

 Integral transformation finished. Total CPU:   0.06 sec, npass=  1  Memory used:   0.16 MW

 Number of p-space configurations:   1

 Reference wavefunction optimized for reference space (refopt=1)

 State     Reference Energy 
   1         -70.88703541

 Number of blocks in overlap matrix:    58   Smallest eigenvalue:  0.10D+01
 Number of N-2 electron functions:      58
 Number of N-1 electron functions:     188

 Number of internal configurations:                    8
 Number of singly external configurations:          3582
 Number of doubly external configurations:         69956
 Total number of contracted configurations:        73546
 Total number of uncontracted configurations:     269095

 Diagonal Coupling coefficients finished.               Storage:   13677 words, CPU-Time:      0.00 seconds.
 Energy denominators for pairs finished in 1 passes.    Storage:   55863 words, CPU-time:      0.00 seconds.

  ITER. STATE  ROOT     SQ.NORM     CORR.ENERGY   TOTAL ENERGY   ENERGY CHANGE       DEN1      VAR(S)    VAR(P)      TIME
    1     1     1     1.00000000     0.00000000   -70.88703541    -0.00000000    -0.53045808  0.28D-01  0.10D+00     0.08
    2     1     1     1.09405705    -0.45390788   -71.34094330    -0.45390788    -0.01182302  0.19D-02  0.31D-02     0.30
    3     1     1     1.08199477    -0.46569054   -71.35272596    -0.01178266    -0.00034495  0.19D-04  0.11D-03     0.56
    4     1     1     1.08189985    -0.46607702   -71.35311243    -0.00038647    -0.00002594  0.31D-05  0.96D-05     0.83
    5     1     1     1.08230733    -0.46611160   -71.35314701    -0.00003458    -0.00000513  0.26D-06  0.22D-05     1.10
    6     1     1     1.08251067    -0.46612027   -71.35315568    -0.00000867    -0.00000104  0.10D-06  0.38D-06     1.34
    7     1     1     1.08253359    -0.46612154   -71.35315695    -0.00000127    -0.00000009  0.71D-08  0.24D-07     1.62
    8     1     1     1.08253936    -0.46612163   -71.35315705    -0.00000009    -0.00000000  0.33D-09  0.15D-08     1.89


 =====================================
 Analysis of CPU times by interactions
 =====================================

       I      S      P

 I   0.0%
 S   0.0%   9.5%
 P   1.1%   3.7%  14.3%

 Initialization:   3.7%
 Other:           67.7%

 Total CPU:        1.9 seconds
 =====================================



 Reference coefficients greater than 0.0500000
 =============================================
 22//222/           0.9606787



 RESULTS FOR STATE 1.6
 =====================

 Coefficient of reference function:   C(0) = 0.96067870 (fixed)   0.96067870 (relaxed)

 Energy contributions of configuration classes

 CLASS          SQ.NORM        ECORR1        ECORR2
 +++++++++++++++++++++++++++++++++++++++++++++++++++
 Internals    0.00092141   -0.00450019   -0.00454962
 Singles      0.01749586   -0.08823448   -0.08895794
 Pairs        0.06511956   -0.37338696   -0.37261407
 Total        1.08353683   -0.46612163   -0.46612163
 +++++++++++++++++++++++++++++++++++++++++++++++++++


 Reference energy                     -70.88703541
 Nuclear energy                         0.00000000
 Kinetic energy                        34.98798625
 One electron energy                 -120.91141404
 Two electron energy                   49.55825699
 Virial quotient                       -2.03936164
 Correlation energy                    -0.46612163
 !CI(SD) STATE 1.6 Energy             -71.353157048049

 Properties without orbital relaxation:

 !CI(SD) STATE 1.6 Dipole moment        0.00000000     0.00000000     0.00000000
 Dipole moment /Debye                   0.00000000     0.00000000     0.00000000

 Cluster corrected energies           -71.39209537 (Davidson, fixed reference)
 Cluster corrected energies           -71.39209537 (Davidson, relaxed reference)

 Cluster corrected energies           -71.38591095 (Pople, fixed reference)
 Cluster corrected energies           -71.38591095 (Pople, relaxed reference)

 

 !CI(SD) expec       <1.6|EKIN|1.6>    34.987986245405
 
 !CI(SD) expec        <1.6|POT|1.6>   -12.785004294238


 **********************************************************************************************************************************
 DATASETS  * FILE   NREC   LENGTH (MB)   RECORD NAMES
              1      21       51.96       500      610      700      900      950      970     1000      129      960     1100   
                                          VAR    BASINP    GEOM    SYMINP    ZMAT    AOBASIS   BASIS     P2S    ABASIS      S 
                                         1400     1410     1420     1200     1210     1080     1600     1650     1300     1700   
                                         EKIN       V       ECP      H0       H01     AOSYM     SMH    MOLCAS    ERIS     OPER   
                                         1380   
                                         JKOP   

              2       4        2.86       700     1000      520     2100   
                                         GEOM     BASIS   MCVARS     RHF  

 PROGRAMS   *        TOTAL        CI        HF       INT
 CPU TIMES  *         6.81      1.94      0.36      4.38
 REAL TIME  *        11.41 SEC
 DISK USED  *       135.29 MB      
 **********************************************************************************************************************************
 SETTING POSTHF(I)      =       -71.35315705  AU                              
                                                                                                                                                                                                                                                                

        SCF            POSTHF        EKIN           POT
    -70.88703541   -71.35315705   34.98798625   -12.78500429
                                                  

 CI/USERDEF energy=    -71.353157048049

        CI              HF-SCF  
    -71.35315705    -70.88703541
 **********************************************************************************************************************************
 Variable memory released
