
 Primary working directories    : /global/cscratch1/sd/aannabe
 Secondary working directories  : /global/cscratch1/sd/aannabe
 Wavefunction directory         : /global/homes/a/aannabe/wfu/
 Main file repository           : /global/cscratch1/sd/aannabe/

 SHA1      : 2873118e99aab1bc19f5b6fc1784693c06d15c95
 NAME      : 2015.1.8
 ARCHNAME  : linux/x86_64
 FC        : /opt/cray/pe/craype/2.5.5/bin/ftn
 BLASLIB   : -Wl,-_start-group /opt/intel/compilers_and_libraries_2016.3.210/linux/mkl/lib/intel64/libmkl_intel_ilp64.a /opt/intel/compilers_and_libraries_2016.3.210/linux/mkl/lib/intel64/libmkl_intel_thread.a /opt/intel/compilers_and_libraries_2016.3.210/linux/mkl/lib/intel64/libmkl_core.a -Wl,-_end-group
 id        : lbl

 Nodes     nprocs
 nid00446     1

 Using customized tuning parameters: mindgm=8; mindgv=16; mindgc=4; mindgr=1; noblas=0; minvec=7
 default implementation of scratch files=df  

 ***,V
 memory,512,m
 gthresh,twoint=1.e-12
 
 gprint,basis,orbitals
 gexpec,ekin,pot
 
 angstrom
 geometry={
 1                                                                               ! Number of atoms
 V 0.0 0.0 0.0
 }
 
 basis={
 Including file /global/homes/a/aannabe/docs/totals/pps/V.pp
 Including file /global/homes/a/aannabe/docs/totals/basis/aug-cc-pVnZ/V_5z.basis
 }
 
 {hf
 wf,13,6,3
 occ,4,1,1,0,1,1,0,0
 open,3.1,4.1,1.6
 sym,1,1,1
 }
 scf(i)=energy
 
 _CC_NORM_MAX=2.0
 {ci
 maxit,100
 core
 }
 posthf(i)=energy
 
 table,scf,posthf,ekin,pot
 save,5.csv,new
 
 

 Variables initialized (889), CPU time= 0.00 sec
 Commands  initialized (702), CPU time= 0.01 sec, 572 directives.
 Default parameters read. Elapsed time= 0.20 sec

 Checking input...
 Passed
1


                                         ***  PROGRAM SYSTEM MOLPRO  ***
                                       Copyright, TTI GmbH Stuttgart, 2015
                                    Version 2015.1 linked Sep  7 2016 23:09:38


 **********************************************************************************************************************************
 LABEL *   V                                                                             
  64 bit serial version                                                                  DATE: 12-Jun-18          TIME: 13:46:54  
 **********************************************************************************************************************************

 SHA1:             2873118e99aab1bc19f5b6fc1784693c06d15c95
 **********************************************************************************************************************************

 THRESHOLDS:

 ZERO    =  1.00D-12  ONEINT  =  1.00D-12  TWOINT  =  1.00D-12  PREFAC  =  1.00D-14  LOCALI  =  1.00D-09  EORDER  =  1.00D-04
 ENERGY  =  0.00D+00  ETEST   =  0.00D+00  EDENS   =  0.00D+00  THRDEDEF=  1.00D-06  GRADIENT=  1.00D-02  STEP    =  1.00D-03
 ORBITAL =  1.00D-05  CIVEC   =  1.00D-05  COEFF   =  1.00D-04  PRINTCI =  5.00D-02  PUNCHCI =  9.90D+01  OPTGRAD =  3.00D-04
 OPTENERG=  1.00D-06  OPTSTEP =  3.00D-04  THRGRAD =  1.00D-10  COMPRESS=  1.00D-11  VARMIN  =  1.00D-07  VARMAX  =  1.00D-03
 THRDOUB =  0.00D+00  THRDIV  =  1.00D-05  THRRED  =  1.00D-07  THRPSP  =  1.00D+00  THRDC   =  1.00D-10  THRCS   =  1.00D-10
 THRNRM  =  1.00D-08  THREQ   =  0.00D+00  THRDE   =  1.00D+00  THRREF  =  1.00D-05  SPARFAC =  1.00D+00  THRDLP  =  1.00D-07
 THRDIA  =  1.00D-10  THRDLS  =  1.00D-07  THRGPS  =  0.00D+00  THRKEX  =  0.00D+00  THRDIS  =  2.00D-01  THRVAR  =  1.00D-10
 THRLOC  =  1.00D-06  THRGAP  =  1.00D-06  THRLOCT = -1.00D+00  THRGAPT = -1.00D+00  THRORB  =  1.00D-06  THRMLTP =  0.00D+00
 THRCPQCI=  1.00D-10  KEXTA   =  0.00D+00  THRCOARS=  0.00D+00  SYMTOL  =  1.00D-06  GRADTOL =  1.00D-06  THROVL  =  1.00D-08
 THRORTH =  1.00D-08  GRID    =  1.00D-06  GRIDMAX =  1.00D-03  DTMAX   =  0.00D+00  THROCCDE=  1.00D-01  THROCCDE=  1.00D-01



 ZUNIT=ANG
 

Geometry recognized as XYZ


 Variable memory set to  512000000 words,  buffer space   230000 words

 SETTING BASIS          =    USERDEF


 Recomputing integrals since basis changed


 Using spherical harmonics



 PROGRAM * SEWARD (Integral evaluation for generally contracted gaussian basis sets)     Author: Roland Lindh, 1990

 Geometry written to block  1 of record 700

 Orientation using atomic masses  
 Molecule type: Atom
 Symmetry elements: X,Y,Z
 Rotational constants:       0.0000000      0.0000000      0.0000000 GHz  (calculated with average atomic masses)

 Point group  D2h 



 ATOMIC COORDINATES

 NR  ATOM    CHARGE       X              Y              Z

   1  V      13.00    0.000000000    0.000000000    0.000000000


          V   CORE POTENTIAL

          d POTENTIAL

 POWERS             1              3              2              2
 EXPONENTIALS   20.32169       19.59698       17.33147       5.123207    
 COEFFICIENTS   13.00000       264.1820      -115.2929     -0.6628873    

          s - d POTENTIAL

 POWERS             2              2
 EXPONENTIALS   15.12502       6.298989    
 COEFFICIENTS   195.5671       22.88643    

          p - d POTENTIAL

 POWERS             2              2
 EXPONENTIALS   15.93855       5.740063    
 COEFFICIENTS   126.4212       16.03597    


 BASIS DATA

   Nr Sym  Nuc  Type         Exponents   Contraction coefficients

    1.1 Ag    1  1s          68.577621     0.000804   -0.000177   -0.000583   -0.000765   -0.003567   -0.003495
                                           0.000000
    2.1 Ag                   34.937147    -0.011594    0.002791    0.009570    0.014529    0.010007    0.000425
                                           0.000000
    3.1 Ag                   17.939491     0.092209   -0.023650   -0.085606   -0.139618    0.040202    0.173641
                                           0.000000
    4.1 Ag                   11.262123    -0.045477    0.012504    0.048426    0.063073    0.343295    0.270676
                                           0.000000
    5.1 Ag                    6.776264    -0.287983    0.078761    0.331239    0.704193   -2.097022   -3.729614
                                           0.000000
    6.1 Ag                    3.524091    -0.217648    0.054974    0.140352   -0.011602    2.804039    9.160519
                                           0.000000
    7.1 Ag                    1.938421     0.407509   -0.118955   -0.907962   -2.311604    1.206638   -7.572293
                                           0.000000
                              0.927153     0.658193   -0.245341   -0.503878    0.768269   -4.505724   -0.106068
                                           0.000000
                              0.448420     0.255234   -0.222959    0.398938    2.168920    2.158325    5.607091
                                           0.000000
                              0.209668     0.008620    0.047809    0.971131   -1.062671    2.129892   -6.008111
                                           0.000000
                              0.103660     0.002734    0.415374    0.423999   -1.218151   -2.265037    1.906416
                                           0.000000
                              0.050630    -0.001161    0.540880   -0.628646    0.340809   -0.681051    1.902685
                                           0.000000
                              0.024201     0.000294    0.183421   -0.467495    0.713322    1.257862   -1.575315
                                           1.000000
    8.1 Ag    1  1s           0.012000     1.000000
    9.1 Ag    1  3d0         89.989649     0.000051
                             33.132961     0.004804
                             15.879656     0.029485
                              7.465803     0.086249
                              3.551993     0.179728
                              1.728185     0.261850
                              0.850498     0.291794
                              0.417673     0.259356
                              0.201523     0.174944
                              0.100711     0.062278
                              0.058959     0.027653
   10.1 Ag    1  3d2+        89.989649     0.000051
                             33.132961     0.004804
                             15.879656     0.029485
                              7.465803     0.086249
                              3.551993     0.179728
                              1.728185     0.261850
                              0.850498     0.291794
                              0.417673     0.259356
                              0.201523     0.174944
                              0.100711     0.062278
                              0.058959     0.027653
   11.1 Ag    1  3d0         89.989649    -0.000038
                             33.132961    -0.004590
                             15.879656    -0.027563
                              7.465803    -0.082775
                              3.551993    -0.173494
                              1.728185    -0.236188
                              0.850498    -0.149226
                              0.417673     0.044145
                              0.201523     0.390500
                              0.100711     0.203064
                              0.058959     0.398002
   12.1 Ag    1  3d2+        89.989649    -0.000038
                             33.132961    -0.004590
                             15.879656    -0.027563
                              7.465803    -0.082775
                              3.551993    -0.173494
                              1.728185    -0.236188
                              0.850498    -0.149226
                              0.417673     0.044145
                              0.201523     0.390500
                              0.100711     0.203064
                              0.058959     0.398002
   13.1 Ag    1  3d0         89.989649     0.000128
                             33.132961     0.006652
                             15.879656     0.044635
                              7.465803     0.122559
                              3.551993     0.311147
                              1.728185     0.288813
                              0.850498    -0.142246
                              0.417673    -0.613737
                              0.201523    -0.123916
                              0.100711    -0.020235
                              0.058959     0.733259
   14.1 Ag    1  3d2+        89.989649     0.000128
                             33.132961     0.006652
                             15.879656     0.044635
                              7.465803     0.122559
                              3.551993     0.311147
                              1.728185     0.288813
                              0.850498    -0.142246
                              0.417673    -0.613737
                              0.201523    -0.123916
                              0.100711    -0.020235
                              0.058959     0.733259
   15.1 Ag    1  3d0         89.989649     0.000045
                             33.132961    -0.010394
                             15.879656    -0.055051
                              7.465803    -0.171457
                              3.551993    -0.519922
                              1.728185     0.099026
                              0.850498     0.829332
                              0.417673    -0.070908
                              0.201523    -0.471171
                              0.100711    -0.878789
                              0.058959     1.211747
   16.1 Ag    1  3d2+        89.989649     0.000045
                             33.132961    -0.010394
                             15.879656    -0.055051
                              7.465803    -0.171457
                              3.551993    -0.519922
                              1.728185     0.099026
                              0.850498     0.829332
                              0.417673    -0.070908
                              0.201523    -0.471171
                              0.100711    -0.878789
                              0.058959     1.211747
   17.1 Ag    1  3d0         89.989649     0.001864
                             33.132961    -0.031157
                             15.879656    -0.049783
                              7.465803    -0.532622
                              3.551993    -0.463738
                              1.728185     1.440373
                              0.850498    -0.384059
                              0.417673    -0.783705
                              0.201523     0.107733
                              0.100711     1.435333
                              0.058959    -1.215094
   18.1 Ag    1  3d2+        89.989649     0.001864
                             33.132961    -0.031157
                             15.879656    -0.049783
                              7.465803    -0.532622
                              3.551993    -0.463738
                              1.728185     1.440373
                              0.850498    -0.384059
                              0.417673    -0.783705
                              0.201523     0.107733
                              0.100711     1.435333
                              0.058959    -1.215094
   19.1 Ag    1  3d0         89.989649     0.000000
                             33.132961     0.000000
                             15.879656     0.000000
                              7.465803     0.000000
                              3.551993     0.000000
                              1.728185     0.000000
                              0.850498     0.000000
                              0.417673     0.000000
                              0.201523     0.000000
                              0.100711     0.000000
                              0.058959     1.000000
   20.1 Ag    1  3d2+        89.989649     0.000000
                             33.132961     0.000000
                             15.879656     0.000000
                              7.465803     0.000000
                              3.551993     0.000000
                              1.728185     0.000000
                              0.850498     0.000000
                              0.417673     0.000000
                              0.201523     0.000000
                              0.100711     0.000000
                              0.058959     1.000000
   21.1 Ag    1  3d0          0.027000     1.000000
   22.1 Ag    1  3d2+         0.027000     1.000000
   23.1 Ag    1  5g0          0.207787     1.000000
   24.1 Ag    1  5g4+         0.207787     1.000000
   25.1 Ag    1  5g2+         0.207787     1.000000
   26.1 Ag    1  5g0          0.567011     1.000000
   27.1 Ag    1  5g4+         0.567011     1.000000
   28.1 Ag    1  5g2+         0.567011     1.000000
   29.1 Ag    1  5g0          1.547265     1.000000
   30.1 Ag    1  5g4+         1.547265     1.000000
   31.1 Ag    1  5g2+         1.547265     1.000000
   32.1 Ag    1  5g0          4.222190     1.000000
   33.1 Ag    1  5g4+         4.222190     1.000000
   34.1 Ag    1  5g2+         4.222190     1.000000
   35.1 Ag    1  7i6+         1.400000     1.000000
   36.1 Ag    1  7i4+         1.400000     1.000000
   37.1 Ag    1  7i2+         1.400000     1.000000
   38.1 Ag    1  7i0          1.400000     1.000000
   39.1 Ag    1  7i6+         3.121626     1.000000
   40.1 Ag    1  7i4+         3.121626     1.000000
   41.1 Ag    1  7i2+         3.121626     1.000000
   42.1 Ag    1  7i0          3.121626     1.000000
    1.2 B3u   1  2px         96.215967     0.000069    0.000040   -0.000053   -0.001262   -0.004780    0.003196
                                           0.000000
    2.2 B3u                  49.579340    -0.000672   -0.000133    0.000023    0.006419    0.025312   -0.016740
                                           0.000000
    3.2 B3u                  25.638009     0.008199   -0.000955    0.004629   -0.021229   -0.094267    0.070507
                                           0.000000
    4.2 B3u                  14.025942    -0.027108    0.003719   -0.007755    0.115777    0.437896   -0.161523
                                           0.000000
    5.2 B3u                   8.740334    -0.053021    0.018866   -0.104133   -0.420740   -1.443166   -0.903765
                                           0.000000
    6.2 B3u                   4.634840     0.005002   -0.012074   -0.017762    0.197742    2.636780    4.916409
                                           0.000000
    7.2 B3u                   2.553374     0.261986   -0.057107    0.728212    1.575600   -0.382436   -6.345867
                                           0.000000
                              1.321166     0.433544   -0.146433    0.218826   -1.067913   -2.761881    2.974168
                                           0.000000
                              0.681285     0.324947   -0.067365   -0.493223   -1.310083    2.159756    1.416657
                                           0.000000
                              0.349458     0.092342   -0.068254   -0.838192    1.191147    0.676151   -3.396922
                                           0.000000
                              0.172773     0.008964    0.403103    0.398401    0.550516   -1.621517    2.170135
                                           0.000000
                              0.063300     0.001185    0.502668    0.664589   -0.718788    0.429164   -0.059081
                                           0.000000
                              0.033969     0.000104    0.261291    0.033011   -0.157441    0.400178   -0.603995
                                           1.000000
    8.2 B3u   1  2px          0.016000     1.000000
    9.2 B3u   1  4f1+         0.077911     1.000000
   10.2 B3u   1  4f3+         0.077911     1.000000
   11.2 B3u   1  4f1+         0.222627     1.000000
   12.2 B3u   1  4f3+         0.222627     1.000000
   13.2 B3u   1  4f1+         0.636150     1.000000
   14.2 B3u   1  4f3+         0.636150     1.000000
   15.2 B3u   1  4f1+         1.817778     1.000000
   16.2 B3u   1  4f3+         1.817778     1.000000
   17.2 B3u   1  4f1+         5.194245     1.000000
   18.2 B3u   1  4f3+         5.194245     1.000000
   19.2 B3u   1  6h1+         0.436881     1.000000
   20.2 B3u   1  6h3+         0.436881     1.000000
   21.2 B3u   1  6h5+         0.436881     1.000000
   22.2 B3u   1  6h1+         1.277114     1.000000
   23.2 B3u   1  6h3+         1.277114     1.000000
   24.2 B3u   1  6h5+         1.277114     1.000000
   25.2 B3u   1  6h1+         3.733326     1.000000
   26.2 B3u   1  6h3+         3.733326     1.000000
   27.2 B3u   1  6h5+         3.733326     1.000000
    1.3 B2u   1  2py         96.215967     0.000069    0.000040   -0.000053   -0.001262   -0.004780    0.003196
                                           0.000000
    2.3 B2u                  49.579340    -0.000672   -0.000133    0.000023    0.006419    0.025312   -0.016740
                                           0.000000
    3.3 B2u                  25.638009     0.008199   -0.000955    0.004629   -0.021229   -0.094267    0.070507
                                           0.000000
    4.3 B2u                  14.025942    -0.027108    0.003719   -0.007755    0.115777    0.437896   -0.161523
                                           0.000000
    5.3 B2u                   8.740334    -0.053021    0.018866   -0.104133   -0.420740   -1.443166   -0.903765
                                           0.000000
    6.3 B2u                   4.634840     0.005002   -0.012074   -0.017762    0.197742    2.636780    4.916409
                                           0.000000
    7.3 B2u                   2.553374     0.261986   -0.057107    0.728212    1.575600   -0.382436   -6.345867
                                           0.000000
                              1.321166     0.433544   -0.146433    0.218826   -1.067913   -2.761881    2.974168
                                           0.000000
                              0.681285     0.324947   -0.067365   -0.493223   -1.310083    2.159756    1.416657
                                           0.000000
                              0.349458     0.092342   -0.068254   -0.838192    1.191147    0.676151   -3.396922
                                           0.000000
                              0.172773     0.008964    0.403103    0.398401    0.550516   -1.621517    2.170135
                                           0.000000
                              0.063300     0.001185    0.502668    0.664589   -0.718788    0.429164   -0.059081
                                           0.000000
                              0.033969     0.000104    0.261291    0.033011   -0.157441    0.400178   -0.603995
                                           1.000000
    8.3 B2u   1  2py          0.016000     1.000000
    9.3 B2u   1  4f1-         0.077911     1.000000
   10.3 B2u   1  4f3-         0.077911     1.000000
   11.3 B2u   1  4f1-         0.222627     1.000000
   12.3 B2u   1  4f3-         0.222627     1.000000
   13.3 B2u   1  4f1-         0.636150     1.000000
   14.3 B2u   1  4f3-         0.636150     1.000000
   15.3 B2u   1  4f1-         1.817778     1.000000
   16.3 B2u   1  4f3-         1.817778     1.000000
   17.3 B2u   1  4f1-         5.194245     1.000000
   18.3 B2u   1  4f3-         5.194245     1.000000
   19.3 B2u   1  6h1-         0.436881     1.000000
   20.3 B2u   1  6h3-         0.436881     1.000000
   21.3 B2u   1  6h5-         0.436881     1.000000
   22.3 B2u   1  6h1-         1.277114     1.000000
   23.3 B2u   1  6h3-         1.277114     1.000000
   24.3 B2u   1  6h5-         1.277114     1.000000
   25.3 B2u   1  6h1-         3.733326     1.000000
   26.3 B2u   1  6h3-         3.733326     1.000000
   27.3 B2u   1  6h5-         3.733326     1.000000
    1.4 B1g   1  3d2-        89.989649     0.000051   -0.000038    0.000128    0.000045    0.001864    0.000000
    2.4 B1g                  33.132961     0.004804   -0.004590    0.006652   -0.010394   -0.031157    0.000000
    3.4 B1g                  15.879656     0.029485   -0.027563    0.044635   -0.055051   -0.049783    0.000000
    4.4 B1g                   7.465803     0.086249   -0.082775    0.122559   -0.171457   -0.532622    0.000000
    5.4 B1g                   3.551993     0.179728   -0.173494    0.311147   -0.519922   -0.463738    0.000000
    6.4 B1g                   1.728185     0.261850   -0.236188    0.288813    0.099026    1.440373    0.000000
                              0.850498     0.291794   -0.149226   -0.142246    0.829332   -0.384059    0.000000
                              0.417673     0.259356    0.044145   -0.613737   -0.070908   -0.783705    0.000000
                              0.201523     0.174944    0.390500   -0.123916   -0.471171    0.107733    0.000000
                              0.100711     0.062278    0.203064   -0.020235   -0.878789    1.435333    0.000000
                              0.058959     0.027653    0.398002    0.733259    1.211747   -1.215094    1.000000
    7.4 B1g   1  3d2-         0.027000     1.000000
    8.4 B1g   1  5g2-         0.207787     1.000000
    9.4 B1g   1  5g4-         0.207787     1.000000
   10.4 B1g   1  5g2-         0.567011     1.000000
   11.4 B1g   1  5g4-         0.567011     1.000000
   12.4 B1g   1  5g2-         1.547265     1.000000
   13.4 B1g   1  5g4-         1.547265     1.000000
   14.4 B1g   1  5g2-         4.222190     1.000000
   15.4 B1g   1  5g4-         4.222190     1.000000
   16.4 B1g   1  7i2-         1.400000     1.000000
   17.4 B1g   1  7i6-         1.400000     1.000000
   18.4 B1g   1  7i4-         1.400000     1.000000
   19.4 B1g   1  7i2-         3.121626     1.000000
   20.4 B1g   1  7i6-         3.121626     1.000000
   21.4 B1g   1  7i4-         3.121626     1.000000
    1.5 B1u   1  2pz         96.215967     0.000069    0.000040   -0.000053   -0.001262   -0.004780    0.003196
                                           0.000000
    2.5 B1u                  49.579340    -0.000672   -0.000133    0.000023    0.006419    0.025312   -0.016740
                                           0.000000
    3.5 B1u                  25.638009     0.008199   -0.000955    0.004629   -0.021229   -0.094267    0.070507
                                           0.000000
    4.5 B1u                  14.025942    -0.027108    0.003719   -0.007755    0.115777    0.437896   -0.161523
                                           0.000000
    5.5 B1u                   8.740334    -0.053021    0.018866   -0.104133   -0.420740   -1.443166   -0.903765
                                           0.000000
    6.5 B1u                   4.634840     0.005002   -0.012074   -0.017762    0.197742    2.636780    4.916409
                                           0.000000
    7.5 B1u                   2.553374     0.261986   -0.057107    0.728212    1.575600   -0.382436   -6.345867
                                           0.000000
                              1.321166     0.433544   -0.146433    0.218826   -1.067913   -2.761881    2.974168
                                           0.000000
                              0.681285     0.324947   -0.067365   -0.493223   -1.310083    2.159756    1.416657
                                           0.000000
                              0.349458     0.092342   -0.068254   -0.838192    1.191147    0.676151   -3.396922
                                           0.000000
                              0.172773     0.008964    0.403103    0.398401    0.550516   -1.621517    2.170135
                                           0.000000
                              0.063300     0.001185    0.502668    0.664589   -0.718788    0.429164   -0.059081
                                           0.000000
                              0.033969     0.000104    0.261291    0.033011   -0.157441    0.400178   -0.603995
                                           1.000000
    8.5 B1u   1  2pz          0.016000     1.000000
    9.5 B1u   1  4f0          0.077911     1.000000
   10.5 B1u   1  4f2+         0.077911     1.000000
   11.5 B1u   1  4f0          0.222627     1.000000
   12.5 B1u   1  4f2+         0.222627     1.000000
   13.5 B1u   1  4f0          0.636150     1.000000
   14.5 B1u   1  4f2+         0.636150     1.000000
   15.5 B1u   1  4f0          1.817778     1.000000
   16.5 B1u   1  4f2+         1.817778     1.000000
   17.5 B1u   1  4f0          5.194245     1.000000
   18.5 B1u   1  4f2+         5.194245     1.000000
   19.5 B1u   1  6h2+         0.436881     1.000000
   20.5 B1u   1  6h4+         0.436881     1.000000
   21.5 B1u   1  6h0          0.436881     1.000000
   22.5 B1u   1  6h2+         1.277114     1.000000
   23.5 B1u   1  6h4+         1.277114     1.000000
   24.5 B1u   1  6h0          1.277114     1.000000
   25.5 B1u   1  6h2+         3.733326     1.000000
   26.5 B1u   1  6h4+         3.733326     1.000000
   27.5 B1u   1  6h0          3.733326     1.000000
    1.6 B2g   1  3d1+        89.989649     0.000051   -0.000038    0.000128    0.000045    0.001864    0.000000
    2.6 B2g                  33.132961     0.004804   -0.004590    0.006652   -0.010394   -0.031157    0.000000
    3.6 B2g                  15.879656     0.029485   -0.027563    0.044635   -0.055051   -0.049783    0.000000
    4.6 B2g                   7.465803     0.086249   -0.082775    0.122559   -0.171457   -0.532622    0.000000
    5.6 B2g                   3.551993     0.179728   -0.173494    0.311147   -0.519922   -0.463738    0.000000
    6.6 B2g                   1.728185     0.261850   -0.236188    0.288813    0.099026    1.440373    0.000000
                              0.850498     0.291794   -0.149226   -0.142246    0.829332   -0.384059    0.000000
                              0.417673     0.259356    0.044145   -0.613737   -0.070908   -0.783705    0.000000
                              0.201523     0.174944    0.390500   -0.123916   -0.471171    0.107733    0.000000
                              0.100711     0.062278    0.203064   -0.020235   -0.878789    1.435333    0.000000
                              0.058959     0.027653    0.398002    0.733259    1.211747   -1.215094    1.000000
    7.6 B2g   1  3d1+         0.027000     1.000000
    8.6 B2g   1  5g1+         0.207787     1.000000
    9.6 B2g   1  5g3+         0.207787     1.000000
   10.6 B2g   1  5g1+         0.567011     1.000000
   11.6 B2g   1  5g3+         0.567011     1.000000
   12.6 B2g   1  5g1+         1.547265     1.000000
   13.6 B2g   1  5g3+         1.547265     1.000000
   14.6 B2g   1  5g1+         4.222190     1.000000
   15.6 B2g   1  5g3+         4.222190     1.000000
   16.6 B2g   1  7i5+         1.400000     1.000000
   17.6 B2g   1  7i3+         1.400000     1.000000
   18.6 B2g   1  7i1+         1.400000     1.000000
   19.6 B2g   1  7i5+         3.121626     1.000000
   20.6 B2g   1  7i3+         3.121626     1.000000
   21.6 B2g   1  7i1+         3.121626     1.000000
    1.7 B3g   1  3d1-        89.989649     0.000051   -0.000038    0.000128    0.000045    0.001864    0.000000
    2.7 B3g                  33.132961     0.004804   -0.004590    0.006652   -0.010394   -0.031157    0.000000
    3.7 B3g                  15.879656     0.029485   -0.027563    0.044635   -0.055051   -0.049783    0.000000
    4.7 B3g                   7.465803     0.086249   -0.082775    0.122559   -0.171457   -0.532622    0.000000
    5.7 B3g                   3.551993     0.179728   -0.173494    0.311147   -0.519922   -0.463738    0.000000
    6.7 B3g                   1.728185     0.261850   -0.236188    0.288813    0.099026    1.440373    0.000000
                              0.850498     0.291794   -0.149226   -0.142246    0.829332   -0.384059    0.000000
                              0.417673     0.259356    0.044145   -0.613737   -0.070908   -0.783705    0.000000
                              0.201523     0.174944    0.390500   -0.123916   -0.471171    0.107733    0.000000
                              0.100711     0.062278    0.203064   -0.020235   -0.878789    1.435333    0.000000
                              0.058959     0.027653    0.398002    0.733259    1.211747   -1.215094    1.000000
    7.7 B3g   1  3d1-         0.027000     1.000000
    8.7 B3g   1  5g1-         0.207787     1.000000
    9.7 B3g   1  5g3-         0.207787     1.000000
   10.7 B3g   1  5g1-         0.567011     1.000000
   11.7 B3g   1  5g3-         0.567011     1.000000
   12.7 B3g   1  5g1-         1.547265     1.000000
   13.7 B3g   1  5g3-         1.547265     1.000000
   14.7 B3g   1  5g1-         4.222190     1.000000
   15.7 B3g   1  5g3-         4.222190     1.000000
   16.7 B3g   1  7i5-         1.400000     1.000000
   17.7 B3g   1  7i3-         1.400000     1.000000
   18.7 B3g   1  7i1-         1.400000     1.000000
   19.7 B3g   1  7i5-         3.121626     1.000000
   20.7 B3g   1  7i3-         3.121626     1.000000
   21.7 B3g   1  7i1-         3.121626     1.000000
    1.8 Au    1  4f2-         0.077911     1.000000
    2.8 Au    1  4f2-         0.222627     1.000000
    3.8 Au    1  4f2-         0.636150     1.000000
    4.8 Au    1  4f2-         1.817778     1.000000
    5.8 Au    1  4f2-         5.194245     1.000000
    6.8 Au    1  6h4-         0.436881     1.000000
    7.8 Au    1  6h2-         0.436881     1.000000
    8.8 Au    1  6h4-         1.277114     1.000000
    9.8 Au    1  6h2-         1.277114     1.000000
   10.8 Au    1  6h4-         3.733326     1.000000
   11.8 Au    1  6h2-         3.733326     1.000000

 NUCLEAR CHARGE:                   13
 NUMBER OF PRIMITIVE AOS:         357
 NUMBER OF SYMMETRY AOS:          246
 NUMBER OF CONTRACTIONS:          197   (  42Ag  +  27B3u +  27B2u +  21B1g +  27B1u +  21B2g +  21B3g +  11Au  )
 NUMBER OF CORE ORBITALS:           4   (   1Ag  +   1B3u +   1B2u +   0B1g +   1B1u +   0B2g +   0B3g +   0Au  )
 NUMBER OF VALENCE ORBITALS:        6   (   3Ag  +   0B3u +   0B2u +   1B1g +   0B1u +   1B2g +   1B3g +   0Au  )


 NUCLEAR REPULSION ENERGY    0.00000000

 EXTRA SYMMETRY OF AOS IN SYMMETRY 1:   1 1 1 1 1 1 1 1 2 3   2 3 2 3 2 3 2 3 2 3   2 3 4 5 6 4 5 6 4 5   6 4 5 6 7 8 910 7 8
                                        910
 EXTRA SYMMETRY OF AOS IN SYMMETRY 2:   1 1 1 1 1 1 1 1 2 3   2 3 2 3 2 3 2 3 4 5   6 4 5 6 4 5 6
 EXTRA SYMMETRY OF AOS IN SYMMETRY 3:   1 1 1 1 1 1 1 1 2 3   2 3 2 3 2 3 2 3 4 5   6 4 5 6 4 5 6
 EXTRA SYMMETRY OF AOS IN SYMMETRY 4:   1 1 1 1 1 1 1 2 3 2   3 2 3 2 3 4 5 6 4 5   6
 EXTRA SYMMETRY OF AOS IN SYMMETRY 5:   1 1 1 1 1 1 1 1 2 3   2 3 2 3 2 3 2 3 4 5   6 4 5 6 4 5 6
 EXTRA SYMMETRY OF AOS IN SYMMETRY 6:   1 1 1 1 1 1 1 2 3 2   3 2 3 2 3 4 5 6 4 5   6
 EXTRA SYMMETRY OF AOS IN SYMMETRY 7:   1 1 1 1 1 1 1 2 3 2   3 2 3 2 3 4 5 6 4 5   6
 EXTRA SYMMETRY OF AOS IN SYMMETRY 8:   1 1 1 1 1 2 3 2 3 2   3

 Eigenvalues of metric

         1 0.409E-03 0.409E-03 0.840E-03 0.611E-01 0.184E+00 0.184E+00 0.246E+00 0.246E+00
         2 0.921E-02 0.172E+00 0.172E+00 0.258E+00 0.400E+00 0.400E+00 0.441E+00 0.441E+00
         3 0.921E-02 0.172E+00 0.172E+00 0.258E+00 0.400E+00 0.400E+00 0.441E+00 0.441E+00
         4 0.409E-03 0.184E+00 0.246E+00 0.246E+00 0.444E+00 0.444E+00 0.444E+00 0.606E+00
         5 0.921E-02 0.172E+00 0.172E+00 0.258E+00 0.400E+00 0.400E+00 0.441E+00 0.441E+00
         6 0.409E-03 0.184E+00 0.246E+00 0.246E+00 0.444E+00 0.444E+00 0.444E+00 0.606E+00
         7 0.409E-03 0.184E+00 0.246E+00 0.246E+00 0.444E+00 0.444E+00 0.444E+00 0.606E+00
         8 0.172E+00 0.400E+00 0.441E+00 0.441E+00 0.841E+00 0.959E+00 0.959E+00 0.148E+01


 Contracted 2-electron integrals neglected if value below      1.0D-12
 AO integral compression algorithm  1   Integral accuracy      1.0D-12

     128.188 MB (compressed) written to integral file ( 42.5%)


 NUMBER OF SORTED TWO-ELECTRON INTEGRALS:   24352329.     BUFFER LENGTH:  32768
 NUMBER OF SEGMENTS:   2  SEGMENT LENGTH:   15998961      RECORD LENGTH: 524288

 Memory used in sort:      16.56 MW

 SORT1 READ    37634223. AND WROTE    15876700. INTEGRALS IN     46 RECORDS. CPU TIME:     1.23 SEC, REAL TIME:     1.50 SEC
 SORT2 READ    15876700. AND WROTE    24352329. INTEGRALS IN    489 RECORDS. CPU TIME:     0.72 SEC, REAL TIME:     0.90 SEC

 FILE SIZES:   FILE 1:   148.2 MBYTE,  FILE 4:   193.0 MBYTE,   TOTAL:    341.2 MBYTE

 OPERATOR DM      FOR CENTER  0  COORDINATES:    0.000000    0.000000    0.000000
 OPERATOR EKIN    FOR CENTER  0  COORDINATES:    0.000000    0.000000    0.000000
 OPERATOR POT     FOR CENTER  0  COORDINATES:    0.000000    0.000000    0.000000


 **********************************************************************************************************************************
 DATASETS  * FILE   NREC   LENGTH (MB)   RECORD NAMES
              1      20      102.21       500      610      700      900      950      970     1000      129      960     1100   
                                          VAR    BASINP    GEOM    SYMINP    ZMAT    AOBASIS   BASIS     P2S    ABASIS      S 
                                         1400     1410     1420     1200     1210     1080     1600     1650     1300     1700   
                                         EKIN       V       ECP      H0       H01     AOSYM     SMH    MOLCAS    ERIS     OPER   

 PROGRAMS   *        TOTAL       INT
 CPU TIMES  *        10.69     10.58
 REAL TIME  *        13.81 SEC
 DISK USED  *       341.50 MB      
 **********************************************************************************************************************************


 PROGRAM * RHF-SCF (OPEN SHELL)       Authors: W. Meyer, H.-J. Werner


 NUMBER OF ELECTRONS:       8+    5-    SPACE SYMMETRY=6    SPIN SYMMETRY: Quartet 
 CONVERGENCE THRESHOLDS:    1.00E-05 (Density)    1.00E-07 (Energy)
 MAX. NUMBER OF ITERATIONS:       60
 INTERPOLATION TYPE:            DIIS
 INTERPOLATION STEPS:              2 (START)      1 (STEP)
 LEVEL SHIFTS:                 -0.60 (CLOSED) -0.30 (OPEN) 


 Singly occupied orbitals:      3.1       4.1       1.6
 
 Extra symmetries of mos in symmetry 1:   1   1

   Atom=V  basis=ECP10MDF_GUESS    lmin=0  lmax=2

 Orbital guess generated from atomic densities. Full valence occupancy:    4   1   1   1   1   1   1   0


 Molecular orbital dump at record        2100.2

 ITERATION    DDIFF          GRAD             ENERGY        2-EL.EN.            DIPOLE MOMENTS         DIIS   ORB.
    1      0.000D+00      0.000D+00       -70.68883218     93.798392    0.00000    0.00000    0.00000    0    start
    2      0.000D+00      0.200D-01       -70.85772938    100.789767    0.00000    0.00000    0.00000    1    diag,B
    3      0.712D-02      0.115D-01       -70.87562946    100.389837    0.00000    0.00000    0.00000    2    diag,B
    4      0.181D-02      0.452D-02       -70.88572613    100.564777    0.00000    0.00000    0.00000    3    diag,B
    5      0.209D-02      0.983D-03       -70.88689473    100.630286    0.00000    0.00000    0.00000    4    diag,B
    6      0.884D-03      0.317D-03       -70.88702987    100.586061    0.00000    0.00000    0.00000    5    diag,B
    7      0.402D-03      0.148D-03       -70.88706846    100.536769    0.00000    0.00000    0.00000    6    fixocc
    8      0.373D-03      0.471D-04       -70.88707220    100.528080    0.00000    0.00000    0.00000    7    diag,B
    9      0.138D-03      0.217D-04       -70.88707316    100.524317    0.00000    0.00000    0.00000    8    diag,B
   10      0.797D-04      0.115D-04       -70.88707350    100.523175    0.00000    0.00000    0.00000    9    orth
   11      0.973D-04      0.299D-05       -70.88707352    100.522703    0.00000    0.00000    0.00000    9    diag,B
   12      0.231D-04      0.403D-06       -70.88707352    100.522722    0.00000    0.00000    0.00000    9    diag,B
   13      0.180D-05      0.148D-06       -70.88707352    100.522704    0.00000    0.00000    0.00000    0    orth

 Final alpha occupancy:   4   1   1   0   1   1   0   0
 Final beta  occupancy:   2   1   1   0   1   0   0   0

 !RHF STATE 1.6 Energy                -70.887073519218
 Nuclear energy                         0.00000000
 One-electron energy                 -121.14842556
 Two-electron energy                   50.26135204
 Virial quotient                       -2.05219753
 !RHF STATE 1.6 Dipole moment           0.00000000     0.00000000     0.00000000
 Dipole moment /Debye                   0.00000000     0.00000000     0.00000000
 

 !RHF expec          <1.6|EKIN|1.6>    34.542032379168
 
 !RHF expec           <1.6|POT|1.6>   -12.768532806501

 ELECTRON ORBITALS
 =================


   Orb  Occ    Energy  Couls-En    Coefficients

                                   1 1s      1 1s      1 1s      1 1s      1 1s      1 1s      1 1s      1 1s      1 3d0     1 3d2+ 
                                   1 3d0     1 3d2+    1 3d0     1 3d2+    1 3d0     1 3d2+    1 3d0     1 3d2+    1 3d0     1 3d2+ 
                                   1 3d0     1 3d2+    1 5g0     1 5g4+    1 5g2+    1 5g0     1 5g4+    1 5g2+    1 5g0     1 5g4+ 
                                   1 5g2+    1 5g0     1 5g4+    1 5g2+    1 7i6+    1 7i4+    1 7i2+    1 7i0     1 7i6+    1 7i4+ 
                                   1 7i2+    1 7i0  

   1.1   2    -3.2343  -15.1577  0.999849 -0.000216  0.000112  0.000043  0.000003  0.000001  0.000235 -0.000115 -0.007099 -0.012295
                                 0.002347  0.004065 -0.000497 -0.000861 -0.000034 -0.000058 -0.000369 -0.000639 -0.000568 -0.000985
                                -0.000066 -0.000115  0.000014  0.000028  0.000021  0.000378  0.000745  0.000563  0.000291  0.000574
                                 0.000434  0.000119  0.000236  0.000178 -0.000001 -0.000001 -0.000001 -0.000001  0.000003  0.000002
                                 0.000002  0.000001

   2.1   2    -0.2326   -4.2553 -0.000152  0.999677 -0.000363  0.000039 -0.000033  0.000015 -0.000408  0.000455 -0.011600 -0.020092
                                -0.008452 -0.014639 -0.000400 -0.000693  0.000317  0.000550  0.000088  0.000152  0.001257  0.002178
                                -0.000292 -0.000506 -0.000158 -0.000312 -0.000236 -0.000046 -0.000091 -0.000069  0.000114  0.000225
                                 0.000170  0.000017  0.000033  0.000025  0.000010  0.000007  0.000006  0.000004  0.000001  0.000001
                                 0.000001  0.000001

   3.1   +    -0.5361   -8.9533  0.014806  0.020746  0.003439 -0.000667  0.000158 -0.000066  0.000140  0.000140  0.494201  0.855980
                                -0.051757 -0.089646 -0.006293 -0.010899  0.000597  0.001034  0.000053  0.000092  0.011123  0.019265
                                 0.000801  0.001388 -0.000394 -0.000777 -0.000587 -0.001323 -0.002609 -0.001972 -0.001184 -0.002334
                                -0.001764 -0.000402 -0.000792 -0.000599 -0.000002 -0.000002 -0.000001 -0.000001 -0.000013 -0.000009
                                -0.000008 -0.000006

   4.1   +    -0.4805   -8.8121 -0.000000 -0.000000  0.000000 -0.000000 -0.000000  0.000000  0.000000 -0.000000  0.860488 -0.496803
                                -0.062199  0.035911 -0.009106  0.005257 -0.000002  0.000001 -0.000250  0.000144  0.010679 -0.006166
                                 0.001372 -0.000792  0.000431 -0.000509  0.000385  0.001126 -0.001332  0.001007  0.000926 -0.001095
                                 0.000828  0.000317 -0.000375  0.000284  0.000019 -0.000005 -0.000015 -0.000013  0.000010 -0.000002
                                -0.000008 -0.000007

                                   1 2px     1 2px     1 2px     1 2px     1 2px     1 2px     1 2px     1 2px     1 4f1+    1 4f3+ 
                                   1 4f1+    1 4f3+    1 4f1+    1 4f3+    1 4f1+    1 4f3+    1 4f1+    1 4f3+    1 6h1+    1 6h3+ 
                                   1 6h5+    1 6h1+    1 6h3+    1 6h5+    1 6h1+    1 6h3+    1 6h5+ 

   1.2   2    -2.0297  -12.7234  1.000697  0.032987 -0.021521  0.003686  0.000761 -0.000432 -0.008046  0.000009 -0.000014 -0.000056
                                 0.000273  0.001057  0.000670  0.002596  0.000215  0.000834  0.000153  0.000594  0.000015  0.000047
                                 0.000105 -0.000024 -0.000078 -0.000175 -0.000026 -0.000085 -0.000190

                                   1 2py     1 2py     1 2py     1 2py     1 2py     1 2py     1 2py     1 2py     1 4f1-    1 4f3- 
                                   1 4f1-    1 4f3-    1 4f1-    1 4f3-    1 4f1-    1 4f3-    1 4f1-    1 4f3-    1 6h1-    1 6h3- 
                                   1 6h5-    1 6h1-    1 6h3-    1 6h5-    1 6h1-    1 6h3-    1 6h5- 

   1.3   2    -2.0381  -12.7385  1.000636  0.029139 -0.019183  0.002299  0.000727 -0.000657 -0.007992  0.000185 -0.000044 -0.000056
                                -0.000705 -0.000911 -0.004519 -0.005834 -0.004515 -0.005829 -0.001329 -0.001715  0.000089  0.000096
                                 0.000129 -0.000092 -0.000100 -0.000134 -0.000123 -0.000133 -0.000178

                                   1 2pz     1 2pz     1 2pz     1 2pz     1 2pz     1 2pz     1 2pz     1 2pz     1 4f0     1 4f2+ 
                                   1 4f0     1 4f2+    1 4f0     1 4f2+    1 4f0     1 4f2+    1 4f0     1 4f2+    1 6h2+    1 6h4+ 
                                   1 6h0     1 6h2+    1 6h4+    1 6h0     1 6h2+    1 6h4+    1 6h0  

   1.5   2    -2.0297  -12.7234  1.000697  0.032987 -0.021521  0.003686  0.000761 -0.000432 -0.008046  0.000009 -0.000035 -0.000045
                                 0.000669  0.000863  0.001642  0.002119  0.000527  0.000681  0.000376  0.000485  0.000077  0.000067
                                 0.000056 -0.000128 -0.000111 -0.000094 -0.000139 -0.000120 -0.000102

                                   1 3d1+    1 3d1+    1 3d1+    1 3d1+    1 3d1+    1 3d1+    1 3d1+    1 5g1+    1 5g3+    1 5g1+ 
                                   1 5g3+    1 5g1+    1 5g3+    1 5g1+    1 5g3+    1 7i5+    1 7i3+    1 7i1+    1 7i5+    1 7i3+ 
                                   1 7i1+ 

   1.6   +    -0.4805   -8.8121  0.993606 -0.071821 -0.010514 -0.000002 -0.000289  0.012331  0.001584  0.000272  0.000721  0.000712
                                 0.001883  0.000585  0.001549  0.000201  0.000531 -0.000022 -0.000016 -0.000006 -0.000012 -0.000008
                                -0.000003

 HOMO      4.1    -0.480470 =     -13.0742eV
 LUMO      2.3     0.016862 =       0.4588eV
 LUMO-HOMO         0.497332 =      13.5331eV


 **********************************************************************************************************************************
 DATASETS  * FILE   NREC   LENGTH (MB)   RECORD NAMES
              1      20      102.21       500      610      700      900      950      970     1000      129      960     1100   
                                          VAR    BASINP    GEOM    SYMINP    ZMAT    AOBASIS   BASIS     P2S    ABASIS      S 
                                         1400     1410     1420     1200     1210     1080     1600     1650     1300     1700   
                                         EKIN       V       ECP      H0       H01     AOSYM     SMH    MOLCAS    ERIS     OPER   

              2       4        2.94       700     1000      520     2100   
                                         GEOM     BASIS   MCVARS     RHF  

 PROGRAMS   *        TOTAL        HF       INT
 CPU TIMES  *        11.74      1.05     10.58
 REAL TIME  *        15.74 SEC
 DISK USED  *       341.50 MB      
 **********************************************************************************************************************************
 SETTING SCF(I)         =       -70.88707352  AU                              
 SETTING _CC_NORM_MAX   =         2.00000000                                  


 PROGRAM * CI (Multireference internally contracted CI)     Authors: H.-J. Werner, P.J. Knowles, 1987


 Convergence thresholds:  THRVAR = 1.00D-08  THRDEN = 1.00D-06

 Number of optimized states:  1  Roots:   1
 Number of reference states:  1  Roots:   1

 Reference symmetry:                   6   Quartet 
 Number of electrons:                 13
 Maximum number of shells:             3
 Maximum number of spin couplings:    14

 Reference space:        1 conf        1 CSFs
 N elec internal:       46 conf       46 CSFs
 N-1 el internal:       83 conf      188 CSFs
 N-2 el internal:       33 conf      223 CSFs

 Number of electrons in valence space:                     13
 Maximum number of open shell orbitals in reference space:  3
 Maximum number of open shell orbitals in internal spaces:  7


 Number of closed-shell orbitals:   5 (   2   1   1   0   1   0   0   0 )
 Number of active  orbitals:        3 (   2   0   0   0   0   1   0   0 )
 Number of external orbitals:     189 (  38  26  26  21  26  20  21  11 )

 Molecular orbitals read from record     2100.2  Type=RHF/CANONICAL (state 1.6)

 Integral transformation finished. Total CPU:   0.22 sec, npass=  1  Memory used:   0.27 MW

 Number of p-space configurations:   1

 Reference wavefunction optimized for reference space (refopt=1)

 State     Reference Energy 
   1         -70.88707352

 Number of blocks in overlap matrix:    58   Smallest eigenvalue:  0.10D+01
 Number of N-2 electron functions:      58
 Number of N-1 electron functions:     188

 Number of internal configurations:                    8
 Number of singly external configurations:          4864
 Number of doubly external configurations:        133562
 Total number of contracted configurations:       138434
 Total number of uncontracted configurations:     513494

 Diagonal Coupling coefficients finished.               Storage:   13677 words, CPU-Time:      0.00 seconds.
 Energy denominators for pairs finished in 1 passes.    Storage:   96217 words, CPU-time:      0.00 seconds.

  ITER. STATE  ROOT     SQ.NORM     CORR.ENERGY   TOTAL ENERGY   ENERGY CHANGE       DEN1      VAR(S)    VAR(P)      TIME
    1     1     1     1.00000000     0.00000000   -70.88707352    -0.00000000    -0.53068125  0.28D-01  0.94D-01     0.26
    2     1     1     1.08947257    -0.45788596   -71.34495948    -0.45788596    -0.01105477  0.20D-02  0.21D-02     0.82
    3     1     1     1.08163041    -0.46880180   -71.35587532    -0.01091584    -0.00032223  0.18D-04  0.85D-04     1.37
    4     1     1     1.08218793    -0.46916897   -71.35624249    -0.00036716    -0.00002589  0.28D-05  0.89D-05     1.91
    5     1     1     1.08263001    -0.46920454   -71.35627806    -0.00003558    -0.00000528  0.30D-06  0.20D-05     2.46
    6     1     1     1.08279070    -0.46921348   -71.35628700    -0.00000894    -0.00000103  0.90D-07  0.34D-06     3.01
    7     1     1     1.08281265    -0.46921478   -71.35628830    -0.00000130    -0.00000010  0.73D-08  0.28D-07     3.56
    8     1     1     1.08282055    -0.46921489   -71.35628841    -0.00000011    -0.00000001  0.38D-09  0.17D-08     4.10


 =====================================
 Analysis of CPU times by interactions
 =====================================

       I      S      P

 I   0.2%
 S   0.0%   4.9%
 P   0.0%   1.7%  10.0%

 Initialization:   6.1%
 Other:           77.1%

 Total CPU:        4.1 seconds
 =====================================



 Reference coefficients greater than 0.0500000
 =============================================
 22//222/           0.9605565



 RESULTS FOR STATE 1.6
 =====================

 Coefficient of reference function:   C(0) = 0.96055654 (fixed)   0.96055654 (relaxed)

 Energy contributions of configuration classes

 CLASS          SQ.NORM        ECORR1        ECORR2
 +++++++++++++++++++++++++++++++++++++++++++++++++++
 Internals    0.00091603   -0.00449475   -0.00454374
 Singles      0.01758782   -0.08858032   -0.08934444
 Pairs        0.06530859   -0.37613982   -0.37532671
 Total        1.08381245   -0.46921489   -0.46921489
 +++++++++++++++++++++++++++++++++++++++++++++++++++


 Reference energy                     -70.88707352
 Nuclear energy                         0.00000000
 Kinetic energy                        34.98506228
 One electron energy                 -120.90125455
 Two electron energy                   49.54496614
 Virial quotient                       -2.03962159
 Correlation energy                    -0.46921489
 !CI(SD) STATE 1.6 Energy             -71.356288414200

 Properties without orbital relaxation:

 !CI(SD) STATE 1.6 Dipole moment        0.00000000     0.00000000     0.00000000
 Dipole moment /Debye                   0.00000000     0.00000000     0.00000000

 Cluster corrected energies           -71.39561446 (Davidson, fixed reference)
 Cluster corrected energies           -71.39561446 (Davidson, relaxed reference)

 Cluster corrected energies           -71.38937393 (Pople, fixed reference)
 Cluster corrected energies           -71.38937393 (Pople, relaxed reference)

 

 !CI(SD) expec       <1.6|EKIN|1.6>    34.985062279592
 
 !CI(SD) expec        <1.6|POT|1.6>   -12.783557401904


 **********************************************************************************************************************************
 DATASETS  * FILE   NREC   LENGTH (MB)   RECORD NAMES
              1      21      104.52       500      610      700      900      950      970     1000      129      960     1100   
                                          VAR    BASINP    GEOM    SYMINP    ZMAT    AOBASIS   BASIS     P2S    ABASIS      S 
                                         1400     1410     1420     1200     1210     1080     1600     1650     1300     1700   
                                         EKIN       V       ECP      H0       H01     AOSYM     SMH    MOLCAS    ERIS     OPER   
                                         1380   
                                         JKOP   

              2       4        2.94       700     1000      520     2100   
                                         GEOM     BASIS   MCVARS     RHF  

 PROGRAMS   *        TOTAL        CI        HF       INT
 CPU TIMES  *        15.89      4.14      1.05     10.58
 REAL TIME  *        22.03 SEC
 DISK USED  *       341.50 MB      
 **********************************************************************************************************************************
 SETTING POSTHF(I)      =       -71.35628841  AU                              
                                                                                                                                                                                                                                                                

        SCF            POSTHF        EKIN           POT
    -70.88707352   -71.35628841   34.98506228   -12.78355740
                                                  

 CI/USERDEF energy=    -71.356288414200

        CI              HF-SCF  
    -71.35628841    -70.88707352
 **********************************************************************************************************************************
 Variable memory released
