TACC:  Starting up job 2697168 
TACC:  Starting parallel tasks... 
  Input file(s): O.log.qmc.in-wfj.xml 

=====================================================
                    QMCPACK 3.5.0 

       (c) Copyright 2003-  QMCPACK developers

                    Please cite:
 J. Kim et al. J. Phys. Cond. Mat. 30 195901 (2018)
      https://doi.org/10.1088/1361-648X/aab9c3

  Git branch: develop
  Last git commit: ca320f40410f5ef17c38db08d5c54848ef64bfe1
  Last git commit date: Tue Dec 18 15:37:17 2018 +0800
  Last git commit subject: Merge pull request #764 from Paul-St-Young/dat-h5
=====================================================
  Global options 

  MPI Nodes             = 1024
  MPI Nodes per group   = 1024
  MPI Group ID          = 0
  OMP 1st level threads = 1
  OMP nested threading disabled or only 1 thread on the 2nd level

  Precision used in this calculation, see definitions in the manual:
  Base precision      = double
  Full precision      = double

  Structure-of-arrays (SoA) optimization enabled

  Input XML = O.log.qmc.in-wfj.xml

  Project = O.log
  date    = 2018-12-27 16:43:29 CST
  host    = c455-032.stampede2.tacc.utexas.edu

 Random Number
 -------------
  Offset for the random number seeds based on time: 401

  Range of prime numbers to use as seeds over processors and threads = 2767-11909


 Particle Set 
 ------------
  Name: ion0
  All the species have the same mass 1
  Particle set size: 1

 Particle Set 
 ------------
  Name: e
  All the species have the same mass 1
  Particle set size: 6

 Wavefunction setup: 
 ------------------- 
  Name: psi0
  LCAO: SoaAtomicBasisSet<MultiQuintic,1>

  Distance table for similar particles (A-A):
    source/target: e
    Using structure-of-arrays (SoA) data layout
    Distance computations use open boundary conditions in 3D.


  Distance table for dissimilar particles (A-B):
    source: ion0  target: e
    Using structure-of-arrays (SoA) data layout
    Distance computations use open boundary conditions in 3D.

Reading BasisSet from HDF5 file:O.log.h5
<input node="atomicBasisSet" name="gaussian" expandYlm="pyscf" angular="spherical" elementType="O" normalized="no" type="Numerical" expM="0" />
  AO BasisSet for O
   Spherical Harmonics contain (-1)^m factor
   Angular momentum m expanded as -l, ... ,l, with the exception of L=1 (1,-1,0)
   Grid is created by the input paremters in h5
    Using log grid ri = 1e-06 rf = 100 npts = 1001
   R(n,l,m,s) 0 0 0 0
   R(n,l,m,s) 1 0 0 0
   R(n,l,m,s) 2 0 0 0
   R(n,l,m,s) 3 0 0 0
   R(n,l,m,s) 4 0 0 0
   R(n,l,m,s) 5 1 0 0
   R(n,l,m,s) 6 1 0 0
   R(n,l,m,s) 7 1 0 0
   R(n,l,m,s) 8 1 0 0
   R(n,l,m,s) 9 1 0 0
   R(n,l,m,s) 10 2 0 0
   R(n,l,m,s) 11 2 0 0
   R(n,l,m,s) 12 2 0 0
   R(n,l,m,s) 13 2 0 0
   R(n,l,m,s) 14 3 0 0
   R(n,l,m,s) 15 3 0 0
   R(n,l,m,s) 16 3 0 0
   R(n,l,m,s) 17 4 0 0
   R(n,l,m,s) 18 4 0 0
   R(n,l,m,s) 19 5 0 0
Expanding Ylm as L=1 as (1,-1,0) and L>1 as -l,-l+1,...,l-1,l
   Adding 1 spherical orbitals
   Adding 1 spherical orbitals
   Adding 1 spherical orbitals
   Adding 1 spherical orbitals
   Adding 1 spherical orbitals
   Adding 3 spherical orbitals
   Adding 3 spherical orbitals
   Adding 3 spherical orbitals
   Adding 3 spherical orbitals
   Adding 3 spherical orbitals
   Adding 5 spherical orbitals
   Adding 5 spherical orbitals
   Adding 5 spherical orbitals
   Adding 5 spherical orbitals
   Adding 7 spherical orbitals
   Adding 7 spherical orbitals
   Adding 7 spherical orbitals
   Adding 9 spherical orbitals
   Adding 9 spherical orbitals
   Adding 11 spherical orbitals
   Maximum Angular Momentum  = 5
   Number of Radial functors = 20
   Basis size                = 90

  Created SPOSet builder named 'LCAOBSet' of type molecularorbital
Reuse SPOSetBuilder "LCAOBSet" type MolecularOrbital
  Building SPOSet '' with '' basis set.
Reuse SPOSetBuilder "LCAOBSet" type MolecularOrbital
  Building SPOSet '' with '' basis set.
  Creating a determinant updet group=0 sposet=updet
  Reusing a SPO set updet
Using DiracDeterminant 
Using rank-1 Sherman-Morrison Fahy update

  Creating a determinant downdet group=1 sposet=downdet
  Reusing a SPO set downdet
Using DiracDeterminant 
Using rank-1 Sherman-Morrison Fahy update

  FermionWF = SlaterDet
  RadialJastrowBuilder adds a functor with cusp = -0.25
 size = 10 parameters 
 cusp = -0.25
 rcut = 6.5
Parameter     Name      Value
uu_0 0.248773 1 1  ON 0
uu_1 0.128629 1 1  ON 1
uu_2 0.0371042 1 1  ON 2
uu_3 -0.0273422 1 1  ON 3
uu_4 -0.0690401 1 1  ON 4
uu_5 -0.0927547 1 1  ON 5
uu_6 -0.100512 1 1  ON 6
uu_7 -0.0954359 1 1  ON 7
uu_8 -0.0775128 1 1  ON 8
uu_9 -0.0525833 1 1  ON 9
  RadialJastrowBuilder adds a functor with cusp = -0.5
 size = 10 parameters 
 cusp = -0.5
 rcut = 6.5
Parameter     Name      Value
ud_0 0.474341 1 1  ON 0
ud_1 0.257225 1 1  ON 1
ud_2 0.125032 1 1  ON 2
ud_3 0.0383035 1 1  ON 3
ud_4 -0.0194887 1 1  ON 4
ud_5 -0.0563917 1 1  ON 5
ud_6 -0.0761804 1 1  ON 6
ud_7 -0.0821138 1 1  ON 7
ud_8 -0.0728272 1 1  ON 8
ud_9 -0.0569197 1 1  ON 9
 size = 10 parameters 
 cusp = 0
 rcut = 6.5
Parameter     Name      Value
eO_0 -0.631027 1 1  ON 0
eO_1 -0.488198 1 1  ON 1
eO_2 -0.230259 1 1  ON 2
eO_3 0.00535596 1 1  ON 3
eO_4 0.178259 1 1  ON 4
eO_5 0.283306 1 1  ON 5
eO_6 0.315078 1 1  ON 6
eO_7 0.286688 1 1  ON 7
eO_8 0.218273 1 1  ON 8
eO_9 0.0982767 1 1  ON 9
Expected 26 parameters, but found 0 in PolynomialFunctor3D.
Parameter     Name      Value
uuO_0 0 1 1  ON 0
uuO_1 0 1 1  ON 1
uuO_2 0 1 1  ON 2
uuO_3 0 1 1  ON 3
uuO_4 0 1 1  ON 4
uuO_5 0 1 1  ON 5
uuO_6 0 1 1  ON 6
uuO_7 0 1 1  ON 7
uuO_8 0 1 1  ON 8
uuO_9 0 1 1  ON 9
uuO_10 0 1 1  ON 10
uuO_11 0 1 1  ON 11
uuO_12 0 1 1  ON 12
uuO_13 0 1 1  ON 13
uuO_14 0 1 1  ON 14
uuO_15 0 1 1  ON 15
uuO_16 0 1 1  ON 16
uuO_17 0 1 1  ON 17
uuO_18 0 1 1  ON 18
uuO_19 0 1 1  ON 19
uuO_20 0 1 1  ON 20
uuO_21 0 1 1  ON 21
uuO_22 0 1 1  ON 22
uuO_23 0 1 1  ON 23
uuO_24 0 1 1  ON 24
uuO_25 0 1 1  ON 25
Expected 26 parameters, but found 0 in PolynomialFunctor3D.
Parameter     Name      Value
udO_0 0 1 1  ON 0
udO_1 0 1 1  ON 1
udO_2 0 1 1  ON 2
udO_3 0 1 1  ON 3
udO_4 0 1 1  ON 4
udO_5 0 1 1  ON 5
udO_6 0 1 1  ON 6
udO_7 0 1 1  ON 7
udO_8 0 1 1  ON 8
udO_9 0 1 1  ON 9
udO_10 0 1 1  ON 10
udO_11 0 1 1  ON 11
udO_12 0 1 1  ON 12
udO_13 0 1 1  ON 13
udO_14 0 1 1  ON 14
udO_15 0 1 1  ON 15
udO_16 0 1 1  ON 16
udO_17 0 1 1  ON 17
udO_18 0 1 1  ON 18
udO_19 0 1 1  ON 19
udO_20 0 1 1  ON 20
udO_21 0 1 1  ON 21
udO_22 0 1 1  ON 22
udO_23 0 1 1  ON 23
udO_24 0 1 1  ON 24
udO_25 0 1 1  ON 25
  QMCHamiltonian::addOperator Kinetic to H, physical Hamiltonian 
  QMCHamiltonian::addOperator ElecElec to H, physical Hamiltonian 
QMCHamiltonian::addOperatorType added type coulomb named ElecElec
  CoulombAA for ion0 is not created.  Number of particles == 1 and nonPeriodic

  ECPotential builder for pseudopotential 

  Adding pseudopotential for O
   Linear grid  ri=0 rf=10 npts = 10001
    ECPComponentBuilder::buildSemiLocalAndLocal 
    Assuming Hartree unit
   Number of angular momentum channels 2
   Maximum angular momentum channel 1
   Creating a Linear Grid Rmax=1.075
  Using global grid with delta = 0.001
   Making L=1 a local potential with a radial cutoff of 9.999
    Non-local pseudopotential parameters
    Maximum angular mementum = 0
    Number of non-local channels = 1
       l(0)=0
    Cutoff radius = 1.075
    Spherical grids and weights: 
                        1                 0                 0       0.08333333333
                       -1   1.224646799e-16                 0       0.08333333333
             0.4472135955       0.894427191                 0       0.08333333333
            -0.4472135955      0.7236067977      0.5257311121       0.08333333333
             0.4472135955      0.2763932023      0.8506508084       0.08333333333
            -0.4472135955     -0.2763932023      0.8506508084       0.08333333333
             0.4472135955     -0.7236067977      0.5257311121       0.08333333333
            -0.4472135955      -0.894427191   1.095357397e-16       0.08333333333
             0.4472135955     -0.7236067977     -0.5257311121       0.08333333333
            -0.4472135955     -0.2763932023     -0.8506508084       0.08333333333
             0.4472135955      0.2763932023     -0.8506508084       0.08333333333
            -0.4472135955      0.7236067977     -0.5257311121       0.08333333333
    Maximum cutoff radius 1.075
  QMCHamiltonian::addOperator LocalECP to H, physical Hamiltonian 

  Using NonLocalECP potential 
    Maximum grid on a sphere for NonLocalECPotential: 12
  QMCHamiltonian::addOperator NonLocalECP to H, physical Hamiltonian 
QMCHamiltonian::addOperatorType added type pseudo named PseudoPot

  QMCHamiltonian::add2WalkerProperty added
    4 to P::PropertyList 
    0 to P::Collectables 
    starting Index of the observables in P::PropertyList = 9
ParticleSetPool::randomize 
<init source="ion0" target="e">
</init>
  Initialization Execution time = 0.6012 secs
=========================================================
 Summary of QMC systems 
=========================================================
ParticleSetPool has: 

  ParticleSet e : 0 4 6 

    6

    u -1.7367606740e+00  6.1949144445e-01  1.1512077786e+00
    u -1.7267049192e-01  1.2249511559e+00 -6.4502215872e-01
    u  6.8700788545e-01 -1.1425751780e+00 -1.8045775694e+00
    u -1.6240510348e+00 -8.1984348021e-01  1.7113559241e+00
    d -3.4472277585e-01  6.8406606850e-01  4.3336594107e-01
    d -4.9492298780e-01 -2.2196348953e-01 -1.1704020455e+00

  ParticleSet ion0 : 0 1 

    1

    O  0.0000000000e+00  0.0000000000e+00  0.0000000000e+00

  Hamiltonian h0
  Kinetic         Kinetic energy
  ElecElec        CoulombAA source/target e

  LocalECP        LocalECPotential: ion0
  NonLocalECP     NonLocalECPotential: ion0

=========================================================
  Start VMC
  File Root O.log.s000 append = no 
=========================================================
  Adding 1 walkers to 0 existing sets
  Total number of walkers: 1.0240000000e+03
  Total weight: 1.0240000000e+03
  Resetting Properties of the walkers 1 x 13

<vmc function="put">
  qmc_counter=0  my_counter=0
  time step      = 1.5000000000e-01
  blocks         = 200
  steps          = 1
  substeps       = 5
  current        = 0
  target samples = 1.0240000000e+03
  walkers/mpi    = 1

  stepsbetweensamples = 200
<parameter name="blocks" condition="int">200</parameter>
<parameter name="blocks_between_recompute" condition="int">0</parameter>
<parameter name="check_properties" condition="int">100</parameter>
<parameter name="checkproperties" condition="int">100</parameter>
<parameter name="current" condition="int">0</parameter>
<parameter name="dmcwalkersperthread" condition="real">1.0000000000e+00</parameter>
<parameter name="maxcpusecs" condition="real">3.6000000000e+05</parameter>
<parameter name="record_configs" condition="int">0</parameter>
<parameter name="record_walkers" condition="int">200</parameter>
<parameter name="recordconfigs" condition="int">0</parameter>
<parameter name="recordwalkers" condition="int">200</parameter>
<parameter name="rewind" condition="int">0</parameter>
<parameter name="samples" condition="real">1.0240000000e+03</parameter>
<parameter name="samplesperthread" condition="real">1.0000000000e+00</parameter>
<parameter name="steps" condition="int">1</parameter>
<parameter name="stepsbetweensamples" condition="int">200</parameter>
<parameter name="store_configs" condition="int">0</parameter>
<parameter name="storeconfigs" condition="int">0</parameter>
<parameter name="sub_steps" condition="int">5</parameter>
<parameter name="substeps" condition="int">5</parameter>
<parameter name="tau" condition="au">1.5000000000e-01</parameter>
<parameter name="time_step" condition="au">1.5000000000e-01</parameter>
<parameter name="timestep" condition="au">1.5000000000e-01</parameter>
<parameter name="use_drift" condition="string">no</parameter>
<parameter name="usedrift" condition="string">no</parameter>
<parameter name="walkers" condition="int">1</parameter>
<parameter name="warmup_steps" condition="int">100</parameter>
<parameter name="warmupsteps" condition="int">100</parameter>
  DumpConfig==false Nothing (configurations, state) will be saved.
  Walker Samples are dumped every 200 steps.
</vmc>
  Initial partition of walkers 0 1 

  Using Particle by Particle moves
  Walker moves without drift
  Total Sample Size   =1024
  Walker distribution on root = 0 1 
  Using Locality Approximation
===== Memory Usage after the buffer registration =====
Available memory on node 0, free + buffers : 83597 MB
Memory footprint by rank 0 on node 0       : 73 MB
==================================================
  Anonymous Buffer size per walker : 2336 Bytes.
MEMORY increase 0 MB VMC::resetRun
====================================================
  SimpleFixedNodeBranch::finalize after a VMC block
    QMC counter        = 0
    time step          = 0.15
    reference energy   = -15.856
    reference variance = 0.230375
====================================================
  QMC Execution time = 1.4179e+00 secs 
Loop execution max-interations = 20

=========================================================
  Start QMCFixedSampleLinearOptimize
  File Root O.log.s001 append = no 
=========================================================
  Skip QMCDriver::putQMCInfo 
  Resetting Properties of the walkers 1 x 13

=========================================================
  Start VMC
  File Root O.log.s001 append = no 
=========================================================
  Using the current 1 walkers.
  Total number of walkers: 1.0240e+03
  Total weight: 1.0240e+03
  Resetting Properties of the walkers 1 x 13

<vmc function="put">
  qmc_counter=0  my_counter=0
  time step      = 1.5000e-01
  blocks         = 300
  steps          = 2
  substeps       = 5
  current        = 0
  target samples = 5.1200e+05
  walkers/mpi    = 1

  stepsbetweensamples = 1
<parameter name="blocks" condition="int">300</parameter>
<parameter name="blocks_between_recompute" condition="int">0</parameter>
<parameter name="check_properties" condition="int">100</parameter>
<parameter name="checkproperties" condition="int">100</parameter>
<parameter name="current" condition="int">0</parameter>
<parameter name="dmcwalkersperthread" condition="real">5.0000e+02</parameter>
<parameter name="maxcpusecs" condition="real">3.6000e+05</parameter>
<parameter name="record_configs" condition="int">0</parameter>
<parameter name="record_walkers" condition="int">1</parameter>
<parameter name="recordconfigs" condition="int">0</parameter>
<parameter name="recordwalkers" condition="int">1</parameter>
<parameter name="rewind" condition="int">0</parameter>
<parameter name="samples" condition="real">5.1200e+05</parameter>
<parameter name="samplesperthread" condition="real">5.0000e+02</parameter>
<parameter name="steps" condition="int">2</parameter>
<parameter name="stepsbetweensamples" condition="int">1</parameter>
<parameter name="store_configs" condition="int">0</parameter>
<parameter name="storeconfigs" condition="int">0</parameter>
<parameter name="sub_steps" condition="int">5</parameter>
<parameter name="substeps" condition="int">5</parameter>
<parameter name="tau" condition="au">1.5000e-01</parameter>
<parameter name="time_step" condition="au">1.5000e-01</parameter>
<parameter name="timestep" condition="au">1.5000e-01</parameter>
<parameter name="use_drift" condition="string">no</parameter>
<parameter name="usedrift" condition="string">no</parameter>
<parameter name="walkers" condition="int">1</parameter>
<parameter name="warmup_steps" condition="int">0</parameter>
<parameter name="warmupsteps" condition="int">0</parameter>
  DumpConfig==false Nothing (configurations, state) will be saved.
  Walker Samples are dumped every 1 steps.
</vmc>
    Restarting, cummulative properties:
      energy     = -1.5856e+01
      variance   = 0.0000e+00
      r2accepted = 1.0000e-10
      r2proposed = 1.0000e-10
 Using QMCCostFunction::QMCCostFunction
  EstimatorManagerBase::add replace LocalEnergy estimator.
<optimization-report>
<vmc stage="main" blocks="300">
  Cannot make clones again. Use existing 1 clones
  Initial partition of walkers 0 1 

  Using Particle by Particle moves
  Walker moves without drift
  Total Sample Size   =512000
  Walker distribution on root = 0 1 
  Using Locality Approximation
===== Memory Usage after the buffer registration =====
Available memory on node 0, free + buffers : 83566 MB
Memory footprint by rank 0 on node 0       : 74 MB
==================================================
  Anonymous Buffer size per walker : 2336 Bytes.
MEMORY increase 0 MB VMC::resetRun
====================================================
  SimpleFixedNodeBranch::finalize after a VMC block
    QMC counter        = 1
    time step          = 0.15
    reference energy   = -15.8877
    reference variance = 0.367061
====================================================
  Execution time = 3.1352e+00
</vmc>
<opt stage="setup">
  <log>
   Reading configurations from h5FileRoot O.log.s001
  QMCCostFunction is created with 1 threads.
  Using Nonlocal PP in Opt: NonLocalECP
   Number of samples loaded to each thread : 500 
  VMC Eavg = -1.5850e+01
  VMC Evar = 2.5979e-01
  Total weights = 5.1200e+05
  Execution time = 1.0692e+00
  </log>
</opt>
<opt stage="main" walkers="512000">
  <log>

*****************************************
Building overlap and Hamiltonian matrices
*****************************************

Among totally 82 optimized parameters, largest LM parameter change : 1.2848e-01 at parameter 21

******************************************************************************
Init Cost =  -1.5045e+01    New Cost =  -1.5054e+01  Delta Cost =  -8.7086e-03
******************************************************************************

The new set of parameters is valid. Updating the trial wave function!

*****************************************************************************
Applying the update for shift_i =   1.0000e-02     and shift_s =   2.5000e-01
*****************************************************************************
  Execution time = 5.1913e+00
  </log>
  <optVariables href="O.log.s001.opt.xml">
uu_0 2.3248e-01 1 1  ON 0
uu_1 1.1408e-01 1 1  ON 1
uu_2 3.0431e-02 1 1  ON 2
uu_3 -2.1704e-02 1 1  ON 3
uu_4 -5.8887e-02 1 1  ON 4
uu_5 -8.2663e-02 1 1  ON 5
uu_6 -9.1352e-02 1 1  ON 6
uu_7 -9.1907e-02 1 1  ON 7
uu_8 -7.8700e-02 1 1  ON 8
uu_9 -5.3342e-02 1 1  ON 9
ud_0 4.8546e-01 1 1  ON 10
ud_1 2.5675e-01 1 1  ON 11
ud_2 1.1398e-01 1 1  ON 12
ud_3 2.7841e-02 1 1  ON 13
ud_4 -2.2678e-02 1 1  ON 14
ud_5 -5.2111e-02 1 1  ON 15
ud_6 -6.7431e-02 1 1  ON 16
ud_7 -7.6986e-02 1 1  ON 17
ud_8 -7.1126e-02 1 1  ON 18
ud_9 -5.2939e-02 1 1  ON 19
eO_0 -6.7813e-01 1 1  ON 20
eO_1 -6.1668e-01 1 1  ON 21
eO_2 -3.0212e-01 1 1  ON 22
eO_3 6.4852e-02 1 1  ON 23
eO_4 2.8086e-01 1 1  ON 24
eO_5 2.9600e-01 1 1  ON 25
eO_6 3.3316e-01 1 1  ON 26
eO_7 3.0405e-01 1 1  ON 27
eO_8 2.3686e-01 1 1  ON 28
eO_9 1.1148e-01 1 1  ON 29
uuO_0 3.8742e-04 1 1  ON 30
uuO_1 1.6327e-04 1 1  ON 31
uuO_2 -4.3769e-04 1 1  ON 32
uuO_3 -7.1549e-04 1 1  ON 33
uuO_4 -3.3547e-04 1 1  ON 34
uuO_5 4.5883e-05 1 1  ON 35
uuO_6 -6.2939e-04 1 1  ON 36
uuO_7 2.5570e-04 1 1  ON 37
uuO_8 6.0870e-04 1 1  ON 38
uuO_9 2.1804e-04 1 1  ON 39
uuO_10 -7.2336e-04 1 1  ON 40
uuO_11 5.4447e-04 1 1  ON 41
uuO_12 -5.4726e-04 1 1  ON 42
uuO_13 1.0208e-03 1 1  ON 43
uuO_14 6.0827e-04 1 1  ON 44
uuO_15 -1.3633e-05 1 1  ON 45
uuO_16 -8.5281e-04 1 1  ON 46
uuO_17 2.5940e-03 1 1  ON 47
uuO_18 -1.7597e-03 1 1  ON 48
uuO_19 6.0473e-04 1 1  ON 49
uuO_20 -3.3158e-04 1 1  ON 50
uuO_21 1.3369e-04 1 1  ON 51
uuO_22 -7.9779e-05 1 1  ON 52
uuO_23 1.7152e-04 1 1  ON 53
uuO_24 -5.7577e-05 1 1  ON 54
uuO_25 1.6319e-05 1 1  ON 55
udO_0 -3.2306e-04 1 1  ON 56
udO_1 5.2745e-04 1 1  ON 57
udO_2 1.2623e-03 1 1  ON 58
udO_3 -2.0209e-04 1 1  ON 59
udO_4 -4.1262e-04 1 1  ON 60
udO_5 -1.1012e-05 1 1  ON 61
udO_6 1.4635e-03 1 1  ON 62
udO_7 -1.4589e-05 1 1  ON 63
udO_8 1.4654e-03 1 1  ON 64
udO_9 -6.7424e-04 1 1  ON 65
udO_10 -1.6677e-04 1 1  ON 66
udO_11 -5.7502e-04 1 1  ON 67
udO_12 -5.8873e-04 1 1  ON 68
udO_13 3.3899e-04 1 1  ON 69
udO_14 4.0061e-04 1 1  ON 70
udO_15 2.1644e-05 1 1  ON 71
udO_16 8.1674e-04 1 1  ON 72
udO_17 7.2746e-04 1 1  ON 73
udO_18 -5.6237e-04 1 1  ON 74
udO_19 4.5529e-04 1 1  ON 75
udO_20 -4.8471e-04 1 1  ON 76
udO_21 1.5443e-04 1 1  ON 77
udO_22 -8.4419e-05 1 1  ON 78
udO_23 3.1976e-04 1 1  ON 79
udO_24 -1.1559e-04 1 1  ON 80
udO_25 2.9658e-05 1 1  ON 81
  </optVariables>
   Restore the number of walkers to 1, removing 0 walkers.
</opt>
</optimization-report>
  QMC Execution time = 5.2077e+00 secs 
  Reusing QMCFixedSampleLinearOptimize
 Using QMCCostFunction::QMCCostFunction

=========================================================
  Start QMCFixedSampleLinearOptimize
  File Root O.log.s002 append = no 
=========================================================
  Skip QMCDriver::putQMCInfo 
  Resetting Properties of the walkers 1 x 13

=========================================================
  Start VMC
  File Root O.log.s002 append = no 
=========================================================
Using existing walkers 
  Resetting Properties of the walkers 1 x 13

<vmc function="put">
  qmc_counter=1  my_counter=1
  time step      = 1.5000e-01
  blocks         = 300
  steps          = 2
  substeps       = 5
  current        = 0
  target samples = 5.1200e+05
  walkers/mpi    = 1

  stepsbetweensamples = 1
<parameter name="blocks" condition="int">300</parameter>
<parameter name="blocks_between_recompute" condition="int">0</parameter>
<parameter name="check_properties" condition="int">100</parameter>
<parameter name="checkproperties" condition="int">100</parameter>
<parameter name="current" condition="int">0</parameter>
<parameter name="dmcwalkersperthread" condition="real">5.0000e+02</parameter>
<parameter name="maxcpusecs" condition="real">3.6000e+05</parameter>
<parameter name="record_configs" condition="int">0</parameter>
<parameter name="record_walkers" condition="int">1</parameter>
<parameter name="recordconfigs" condition="int">0</parameter>
<parameter name="recordwalkers" condition="int">1</parameter>
<parameter name="rewind" condition="int">0</parameter>
<parameter name="samples" condition="real">5.1200e+05</parameter>
<parameter name="samplesperthread" condition="real">5.0000e+02</parameter>
<parameter name="steps" condition="int">2</parameter>
<parameter name="stepsbetweensamples" condition="int">1</parameter>
<parameter name="store_configs" condition="int">0</parameter>
<parameter name="storeconfigs" condition="int">0</parameter>
<parameter name="sub_steps" condition="int">5</parameter>
<parameter name="substeps" condition="int">5</parameter>
<parameter name="tau" condition="au">1.5000e-01</parameter>
<parameter name="time_step" condition="au">1.5000e-01</parameter>
<parameter name="timestep" condition="au">1.5000e-01</parameter>
<parameter name="use_drift" condition="string">no</parameter>
<parameter name="usedrift" condition="string">no</parameter>
<parameter name="walkers" condition="int">1</parameter>
<parameter name="warmup_steps" condition="int">0</parameter>
<parameter name="warmupsteps" condition="int">0</parameter>
  DumpConfig==false Nothing (configurations, state) will be saved.
  Walker Samples are dumped every 1 steps.
</vmc>
  EstimatorManagerBase::add replace LocalEnergy estimator.
  EstimatorManagerBase::add replace LocalEnergy estimator.
<optimization-report>
<vmc stage="main" blocks="300">
  Cannot make clones again. Use existing 1 clones
  Initial partition of walkers 0 1 
  Using Particle by Particle moves
  Walker moves without drift
  Total Sample Size   =512000
  Walker distribution on root = 0 1 
  Using Locality Approximation
===== Memory Usage after the buffer registration =====
Available memory on node 0, free + buffers : 82449 MB
Memory footprint by rank 0 on node 0       : 94 MB
==================================================
====================================================
  SimpleFixedNodeBranch::finalize after a VMC block
    QMC counter        = 2
    time step          = 0.15
    reference energy   = -15.896
    reference variance = 0.275464
====================================================
  Execution time = 3.0791e+00
</vmc>
<opt stage="setup">
  <log>
   Reading configurations from h5FileRoot O.log.s002
  QMCCostFunction is created with 1 threads.
  Using Nonlocal PP in Opt: NonLocalECP
   Number of samples loaded to each thread : 500 
  VMC Eavg = -1.5858e+01
  VMC Evar = 2.1178e-01
  Total weights = 5.1200e+05
  Execution time = 1.0498e+00
  </log>
</opt>
<opt stage="main" walkers="512000">
  <log>

*****************************************
Building overlap and Hamiltonian matrices
*****************************************

Among totally 82 optimized parameters, largest LM parameter change : 8.6480e-02 at parameter 21

******************************************************************************
Init Cost =  -1.5055e+01    New Cost =  -1.5056e+01  Delta Cost =  -8.3426e-04
******************************************************************************

The new set of parameters is valid. Updating the trial wave function!

*****************************************************************************
Applying the update for shift_i =   1.0000e-02     and shift_s =   6.2500e-02
*****************************************************************************
  Execution time = 5.0546e+00
  </log>
  <optVariables href="O.log.s002.opt.xml">
uu_0 2.1956e-01 1 1  ON 0
uu_1 1.0432e-01 1 1  ON 1
uu_2 2.6060e-02 1 1  ON 2
uu_3 -2.0065e-02 1 1  ON 3
uu_4 -5.2305e-02 1 1  ON 4
uu_5 -7.4636e-02 1 1  ON 5
uu_6 -8.4189e-02 1 1  ON 6
uu_7 -8.8022e-02 1 1  ON 7
uu_8 -7.7751e-02 1 1  ON 8
uu_9 -5.3008e-02 1 1  ON 9
ud_0 4.8358e-01 1 1  ON 10
ud_1 2.5363e-01 1 1  ON 11
ud_2 1.1072e-01 1 1  ON 12
ud_3 2.5761e-02 1 1  ON 13
ud_4 -2.2160e-02 1 1  ON 14
ud_5 -4.9083e-02 1 1  ON 15
ud_6 -6.2534e-02 1 1  ON 16
ud_7 -7.3287e-02 1 1  ON 17
ud_8 -7.0228e-02 1 1  ON 18
ud_9 -5.2135e-02 1 1  ON 19
eO_0 -7.2956e-01 1 1  ON 20
eO_1 -7.0316e-01 1 1  ON 21
eO_2 -3.5508e-01 1 1  ON 22
eO_3 8.7483e-02 1 1  ON 23
eO_4 3.4154e-01 1 1  ON 24
eO_5 3.1859e-01 1 1  ON 25
eO_6 3.5713e-01 1 1  ON 26
eO_7 3.2981e-01 1 1  ON 27
eO_8 2.5580e-01 1 1  ON 28
eO_9 1.2296e-01 1 1  ON 29
uuO_0 4.0936e-04 1 1  ON 30
uuO_1 2.6630e-04 1 1  ON 31
uuO_2 -5.3356e-04 1 1  ON 32
uuO_3 -7.7174e-04 1 1  ON 33
uuO_4 -3.8896e-04 1 1  ON 34
uuO_5 7.2365e-05 1 1  ON 35
uuO_6 -4.8265e-04 1 1  ON 36
uuO_7 1.1761e-04 1 1  ON 37
uuO_8 4.8177e-04 1 1  ON 38
uuO_9 1.4190e-04 1 1  ON 39
uuO_10 -8.5271e-04 1 1  ON 40
uuO_11 8.8743e-04 1 1  ON 41
uuO_12 -6.2032e-04 1 1  ON 42
uuO_13 1.0596e-03 1 1  ON 43
uuO_14 6.4377e-04 1 1  ON 44
uuO_15 -1.0363e-05 1 1  ON 45
uuO_16 -5.9051e-04 1 1  ON 46
uuO_17 2.8125e-03 1 1  ON 47
uuO_18 -2.2410e-03 1 1  ON 48
uuO_19 7.8739e-04 1 1  ON 49
uuO_20 -4.2268e-04 1 1  ON 50
uuO_21 1.8230e-04 1 1  ON 51
uuO_22 -1.0876e-04 1 1  ON 52
uuO_23 2.2571e-04 1 1  ON 53
uuO_24 -7.6186e-05 1 1  ON 54
uuO_25 2.0562e-05 1 1  ON 55
udO_0 -3.1330e-04 1 1  ON 56
udO_1 6.1730e-04 1 1  ON 57
udO_2 1.2486e-03 1 1  ON 58
udO_3 -3.0125e-04 1 1  ON 59
udO_4 -4.7206e-04 1 1  ON 60
udO_5 1.0678e-05 1 1  ON 61
udO_6 1.5175e-03 1 1  ON 62
udO_7 -1.7214e-04 1 1  ON 63
udO_8 1.5566e-03 1 1  ON 64
udO_9 -6.4440e-04 1 1  ON 65
udO_10 -2.7850e-04 1 1  ON 66
udO_11 -3.1875e-04 1 1  ON 67
udO_12 -7.4023e-04 1 1  ON 68
udO_13 5.0247e-04 1 1  ON 69
udO_14 5.2061e-04 1 1  ON 70
udO_15 2.5315e-05 1 1  ON 71
udO_16 6.5065e-04 1 1  ON 72
udO_17 1.2568e-03 1 1  ON 73
udO_18 -1.0578e-03 1 1  ON 74
udO_19 6.6739e-04 1 1  ON 75
udO_20 -5.3120e-04 1 1  ON 76
udO_21 1.8389e-04 1 1  ON 77
udO_22 -1.1303e-04 1 1  ON 78
udO_23 3.3900e-04 1 1  ON 79
udO_24 -1.2686e-04 1 1  ON 80
udO_25 3.2802e-05 1 1  ON 81
  </optVariables>
   Restore the number of walkers to 1, removing 0 walkers.
</opt>
</optimization-report>
  QMC Execution time = 5.0700e+00 secs 
  Reusing QMCFixedSampleLinearOptimize
 Using QMCCostFunction::QMCCostFunction

=========================================================
  Start QMCFixedSampleLinearOptimize
  File Root O.log.s003 append = no 
=========================================================
  Skip QMCDriver::putQMCInfo 
  Resetting Properties of the walkers 1 x 13

=========================================================
  Start VMC
  File Root O.log.s003 append = no 
=========================================================
Using existing walkers 
  Resetting Properties of the walkers 1 x 13

<vmc function="put">
  qmc_counter=2  my_counter=2
  time step      = 1.5000e-01
  blocks         = 300
  steps          = 2
  substeps       = 5
  current        = 0
  target samples = 5.1200e+05
  walkers/mpi    = 1

  stepsbetweensamples = 1
<parameter name="blocks" condition="int">300</parameter>
<parameter name="blocks_between_recompute" condition="int">0</parameter>
<parameter name="check_properties" condition="int">100</parameter>
<parameter name="checkproperties" condition="int">100</parameter>
<parameter name="current" condition="int">0</parameter>
<parameter name="dmcwalkersperthread" condition="real">5.0000e+02</parameter>
<parameter name="maxcpusecs" condition="real">3.6000e+05</parameter>
<parameter name="record_configs" condition="int">0</parameter>
<parameter name="record_walkers" condition="int">1</parameter>
<parameter name="recordconfigs" condition="int">0</parameter>
<parameter name="recordwalkers" condition="int">1</parameter>
<parameter name="rewind" condition="int">0</parameter>
<parameter name="samples" condition="real">5.1200e+05</parameter>
<parameter name="samplesperthread" condition="real">5.0000e+02</parameter>
<parameter name="steps" condition="int">2</parameter>
<parameter name="stepsbetweensamples" condition="int">1</parameter>
<parameter name="store_configs" condition="int">0</parameter>
<parameter name="storeconfigs" condition="int">0</parameter>
<parameter name="sub_steps" condition="int">5</parameter>
<parameter name="substeps" condition="int">5</parameter>
<parameter name="tau" condition="au">1.5000e-01</parameter>
<parameter name="time_step" condition="au">1.5000e-01</parameter>
<parameter name="timestep" condition="au">1.5000e-01</parameter>
<parameter name="use_drift" condition="string">no</parameter>
<parameter name="usedrift" condition="string">no</parameter>
<parameter name="walkers" condition="int">1</parameter>
<parameter name="warmup_steps" condition="int">0</parameter>
<parameter name="warmupsteps" condition="int">0</parameter>
  DumpConfig==false Nothing (configurations, state) will be saved.
  Walker Samples are dumped every 1 steps.
</vmc>
  EstimatorManagerBase::add replace LocalEnergy estimator.
  EstimatorManagerBase::add replace LocalEnergy estimator.
<optimization-report>
<vmc stage="main" blocks="300">
  Cannot make clones again. Use existing 1 clones
  Initial partition of walkers 0 1 
  Using Particle by Particle moves
  Walker moves without drift
  Total Sample Size   =512000
  Walker distribution on root = 0 1 
  Using Locality Approximation
===== Memory Usage after the buffer registration =====
Available memory on node 0, free + buffers : 82446 MB
Memory footprint by rank 0 on node 0       : 96 MB
==================================================
====================================================
  SimpleFixedNodeBranch::finalize after a VMC block
    QMC counter        = 3
    time step          = 0.15
    reference energy   = -15.8201
    reference variance = 0.252921
====================================================
  Execution time = 3.0679e+00
</vmc>
<opt stage="setup">
  <log>
   Reading configurations from h5FileRoot O.log.s003
  QMCCostFunction is created with 1 threads.
  Using Nonlocal PP in Opt: NonLocalECP
   Number of samples loaded to each thread : 500 
  VMC Eavg = -1.5858e+01
  VMC Evar = 2.1270e-01
  Total weights = 5.1200e+05
  Execution time = 9.9444e-01
  </log>
</opt>
<opt stage="main" walkers="512000">
  <log>

*****************************************
Building overlap and Hamiltonian matrices
*****************************************

Among totally 82 optimized parameters, largest LM parameter change : 5.2374e-02 at parameter 21

******************************************************************************
Init Cost =  -1.5055e+01    New Cost =  -1.5055e+01  Delta Cost =  -2.7098e-04
******************************************************************************

The new set of parameters is valid. Updating the trial wave function!

*****************************************************************************
Applying the update for shift_i =   1.0000e-02     and shift_s =   1.5625e-02
*****************************************************************************
  Execution time = 4.9800e+00
  </log>
  <optVariables href="O.log.s003.opt.xml">
uu_0 2.1049e-01 1 1  ON 0
uu_1 9.6756e-02 1 1  ON 1
uu_2 2.3174e-02 1 1  ON 2
uu_3 -1.9761e-02 1 1  ON 3
uu_4 -5.0358e-02 1 1  ON 4
uu_5 -7.2564e-02 1 1  ON 5
uu_6 -8.2599e-02 1 1  ON 6
uu_7 -8.6797e-02 1 1  ON 7
uu_8 -7.7786e-02 1 1  ON 8
uu_9 -4.9310e-02 1 1  ON 9
ud_0 4.7968e-01 1 1  ON 10
ud_1 2.5021e-01 1 1  ON 11
ud_2 1.0874e-01 1 1  ON 12
ud_3 2.5663e-02 1 1  ON 13
ud_4 -2.0343e-02 1 1  ON 14
ud_5 -4.6980e-02 1 1  ON 15
ud_6 -6.0862e-02 1 1  ON 16
ud_7 -7.2898e-02 1 1  ON 17
ud_8 -7.1585e-02 1 1  ON 18
ud_9 -5.0466e-02 1 1  ON 19
eO_0 -7.7412e-01 1 1  ON 20
eO_1 -7.5553e-01 1 1  ON 21
eO_2 -3.9391e-01 1 1  ON 22
eO_3 8.3375e-02 1 1  ON 23
eO_4 3.6522e-01 1 1  ON 24
eO_5 3.3754e-01 1 1  ON 25
eO_6 3.7712e-01 1 1  ON 26
eO_7 3.5302e-01 1 1  ON 27
eO_8 2.8073e-01 1 1  ON 28
eO_9 1.4321e-01 1 1  ON 29
uuO_0 4.3472e-04 1 1  ON 30
uuO_1 2.5119e-04 1 1  ON 31
uuO_2 -6.3648e-04 1 1  ON 32
uuO_3 -7.8240e-04 1 1  ON 33
uuO_4 -4.0877e-04 1 1  ON 34
uuO_5 9.2507e-05 1 1  ON 35
uuO_6 -6.2008e-04 1 1  ON 36
uuO_7 1.7388e-04 1 1  ON 37
uuO_8 5.4106e-04 1 1  ON 38
uuO_9 2.3961e-04 1 1  ON 39
uuO_10 -8.8923e-04 1 1  ON 40
uuO_11 8.4825e-04 1 1  ON 41
uuO_12 -7.1290e-04 1 1  ON 42
uuO_13 1.0941e-03 1 1  ON 43
uuO_14 7.6060e-04 1 1  ON 44
uuO_15 -1.4725e-05 1 1  ON 45
uuO_16 -6.9643e-04 1 1  ON 46
uuO_17 2.9670e-03 1 1  ON 47
uuO_18 -2.1268e-03 1 1  ON 48
uuO_19 8.5065e-04 1 1  ON 49
uuO_20 -4.4403e-04 1 1  ON 50
uuO_21 7.2732e-05 1 1  ON 51
uuO_22 -9.4370e-05 1 1  ON 52
uuO_23 2.5883e-04 1 1  ON 53
uuO_24 -4.2546e-05 1 1  ON 54
uuO_25 9.4988e-06 1 1  ON 55
udO_0 -3.3731e-04 1 1  ON 56
udO_1 5.7425e-04 1 1  ON 57
udO_2 1.2311e-03 1 1  ON 58
udO_3 -2.4213e-04 1 1  ON 59
udO_4 -4.6272e-04 1 1  ON 60
udO_5 3.0140e-05 1 1  ON 61
udO_6 1.3876e-03 1 1  ON 62
udO_7 -2.3272e-05 1 1  ON 63
udO_8 1.5733e-03 1 1  ON 64
udO_9 -5.1440e-04 1 1  ON 65
udO_10 -2.2180e-04 1 1  ON 66
udO_11 -4.9589e-04 1 1  ON 67
udO_12 -7.7297e-04 1 1  ON 68
udO_13 3.4345e-04 1 1  ON 69
udO_14 5.6488e-04 1 1  ON 70
udO_15 2.4537e-05 1 1  ON 71
udO_16 5.6813e-04 1 1  ON 72
udO_17 1.0300e-03 1 1  ON 73
udO_18 -7.1417e-04 1 1  ON 74
udO_19 6.7360e-04 1 1  ON 75
udO_20 -4.0984e-04 1 1  ON 76
udO_21 6.4369e-05 1 1  ON 77
udO_22 -9.6946e-05 1 1  ON 78
udO_23 2.8712e-04 1 1  ON 79
udO_24 -8.4117e-05 1 1  ON 80
udO_25 2.2059e-05 1 1  ON 81
  </optVariables>
   Restore the number of walkers to 1, removing 0 walkers.
</opt>
</optimization-report>
  QMC Execution time = 4.9955e+00 secs 
  Reusing QMCFixedSampleLinearOptimize
 Using QMCCostFunction::QMCCostFunction

=========================================================
  Start QMCFixedSampleLinearOptimize
  File Root O.log.s004 append = no 
=========================================================
  Skip QMCDriver::putQMCInfo 
  Resetting Properties of the walkers 1 x 13

=========================================================
  Start VMC
  File Root O.log.s004 append = no 
=========================================================
Using existing walkers 
  Resetting Properties of the walkers 1 x 13

<vmc function="put">
  qmc_counter=3  my_counter=3
  time step      = 1.5000e-01
  blocks         = 300
  steps          = 2
  substeps       = 5
  current        = 0
  target samples = 5.1200e+05
  walkers/mpi    = 1

  stepsbetweensamples = 1
<parameter name="blocks" condition="int">300</parameter>
<parameter name="blocks_between_recompute" condition="int">0</parameter>
<parameter name="check_properties" condition="int">100</parameter>
<parameter name="checkproperties" condition="int">100</parameter>
<parameter name="current" condition="int">0</parameter>
<parameter name="dmcwalkersperthread" condition="real">5.0000e+02</parameter>
<parameter name="maxcpusecs" condition="real">3.6000e+05</parameter>
<parameter name="record_configs" condition="int">0</parameter>
<parameter name="record_walkers" condition="int">1</parameter>
<parameter name="recordconfigs" condition="int">0</parameter>
<parameter name="recordwalkers" condition="int">1</parameter>
<parameter name="rewind" condition="int">0</parameter>
<parameter name="samples" condition="real">5.1200e+05</parameter>
<parameter name="samplesperthread" condition="real">5.0000e+02</parameter>
<parameter name="steps" condition="int">2</parameter>
<parameter name="stepsbetweensamples" condition="int">1</parameter>
<parameter name="store_configs" condition="int">0</parameter>
<parameter name="storeconfigs" condition="int">0</parameter>
<parameter name="sub_steps" condition="int">5</parameter>
<parameter name="substeps" condition="int">5</parameter>
<parameter name="tau" condition="au">1.5000e-01</parameter>
<parameter name="time_step" condition="au">1.5000e-01</parameter>
<parameter name="timestep" condition="au">1.5000e-01</parameter>
<parameter name="use_drift" condition="string">no</parameter>
<parameter name="usedrift" condition="string">no</parameter>
<parameter name="walkers" condition="int">1</parameter>
<parameter name="warmup_steps" condition="int">0</parameter>
<parameter name="warmupsteps" condition="int">0</parameter>
  DumpConfig==false Nothing (configurations, state) will be saved.
  Walker Samples are dumped every 1 steps.
</vmc>
  EstimatorManagerBase::add replace LocalEnergy estimator.
  EstimatorManagerBase::add replace LocalEnergy estimator.
<optimization-report>
<vmc stage="main" blocks="300">
  Cannot make clones again. Use existing 1 clones
  Initial partition of walkers 0 1 
  Using Particle by Particle moves
  Walker moves without drift
  Total Sample Size   =512000
  Walker distribution on root = 0 1 
  Using Locality Approximation
===== Memory Usage after the buffer registration =====
Available memory on node 0, free + buffers : 82442 MB
Memory footprint by rank 0 on node 0       : 98 MB
==================================================
====================================================
  SimpleFixedNodeBranch::finalize after a VMC block
    QMC counter        = 4
    time step          = 0.15
    reference energy   = -15.8691
    reference variance = 0.191507
====================================================
  Execution time = 3.0624e+00
</vmc>
<opt stage="setup">
  <log>
   Reading configurations from h5FileRoot O.log.s004
  QMCCostFunction is created with 1 threads.
  Using Nonlocal PP in Opt: NonLocalECP
   Number of samples loaded to each thread : 500 
  VMC Eavg = -1.5860e+01
  VMC Evar = 1.9558e-01
  Total weights = 5.1200e+05
  Execution time = 9.9773e-01
  </log>
</opt>
<opt stage="main" walkers="512000">
  <log>

*****************************************
Building overlap and Hamiltonian matrices
*****************************************

Among totally 82 optimized parameters, largest LM parameter change : 4.3209e-02 at parameter 20

******************************************************************************
Init Cost =  -1.5057e+01    New Cost =  -1.5057e+01  Delta Cost =  -2.4160e-04
******************************************************************************

The new set of parameters is valid. Updating the trial wave function!

*****************************************************************************
Applying the update for shift_i =   1.0000e-02     and shift_s =   3.9062e-03
*****************************************************************************
  Execution time = 4.9652e+00
  </log>
  <optVariables href="O.log.s004.opt.xml">
uu_0 2.0214e-01 1 1  ON 0
uu_1 9.0531e-02 1 1  ON 1
uu_2 1.9456e-02 1 1  ON 2
uu_3 -2.0914e-02 1 1  ON 3
uu_4 -4.9607e-02 1 1  ON 4
uu_5 -7.1385e-02 1 1  ON 5
uu_6 -8.0805e-02 1 1  ON 6
uu_7 -8.5890e-02 1 1  ON 7
uu_8 -7.9400e-02 1 1  ON 8
uu_9 -5.2442e-02 1 1  ON 9
ud_0 4.8018e-01 1 1  ON 10
ud_1 2.5184e-01 1 1  ON 11
ud_2 1.1176e-01 1 1  ON 12
ud_3 2.9108e-02 1 1  ON 13
ud_4 -1.6726e-02 1 1  ON 14
ud_5 -4.3431e-02 1 1  ON 15
ud_6 -5.8491e-02 1 1  ON 16
ud_7 -7.1502e-02 1 1  ON 17
ud_8 -7.2163e-02 1 1  ON 18
ud_9 -5.3947e-02 1 1  ON 19
eO_0 -8.1732e-01 1 1  ON 20
eO_1 -7.9443e-01 1 1  ON 21
eO_2 -4.2533e-01 1 1  ON 22
eO_3 7.1138e-02 1 1  ON 23
eO_4 3.7632e-01 1 1  ON 24
eO_5 3.6215e-01 1 1  ON 25
eO_6 3.9878e-01 1 1  ON 26
eO_7 3.7497e-01 1 1  ON 27
eO_8 2.9935e-01 1 1  ON 28
eO_9 1.5952e-01 1 1  ON 29
uuO_0 4.1790e-04 1 1  ON 30
uuO_1 3.1980e-04 1 1  ON 31
uuO_2 -5.9641e-04 1 1  ON 32
uuO_3 -8.0866e-04 1 1  ON 33
uuO_4 -4.3276e-04 1 1  ON 34
uuO_5 1.0538e-04 1 1  ON 35
uuO_6 -4.3726e-04 1 1  ON 36
uuO_7 -5.9993e-05 1 1  ON 37
uuO_8 5.0065e-04 1 1  ON 38
uuO_9 1.5191e-04 1 1  ON 39
uuO_10 -9.4464e-04 1 1  ON 40
uuO_11 1.0686e-03 1 1  ON 41
uuO_12 -7.4403e-04 1 1  ON 42
uuO_13 1.1426e-03 1 1  ON 43
uuO_14 7.2183e-04 1 1  ON 44
uuO_15 -3.0527e-06 1 1  ON 45
uuO_16 -5.7335e-04 1 1  ON 46
uuO_17 3.0079e-03 1 1  ON 47
uuO_18 -2.4099e-03 1 1  ON 48
uuO_19 9.5554e-04 1 1  ON 49
uuO_20 -4.6357e-04 1 1  ON 50
uuO_21 1.3818e-04 1 1  ON 51
uuO_22 -1.2554e-04 1 1  ON 52
uuO_23 2.5768e-04 1 1  ON 53
uuO_24 -5.9952e-05 1 1  ON 54
uuO_25 1.8584e-05 1 1  ON 55
udO_0 -3.5915e-04 1 1  ON 56
udO_1 5.9908e-04 1 1  ON 57
udO_2 1.2936e-03 1 1  ON 58
udO_3 -2.3910e-04 1 1  ON 59
udO_4 -4.7576e-04 1 1  ON 60
udO_5 4.1949e-05 1 1  ON 61
udO_6 1.4595e-03 1 1  ON 62
udO_7 -1.1450e-04 1 1  ON 63
udO_8 1.6648e-03 1 1  ON 64
udO_9 -5.2854e-04 1 1  ON 65
udO_10 -2.1815e-04 1 1  ON 66
udO_11 -5.3565e-04 1 1  ON 67
udO_12 -8.2757e-04 1 1  ON 68
udO_13 3.6223e-04 1 1  ON 69
udO_14 5.9232e-04 1 1  ON 70
udO_15 2.9448e-05 1 1  ON 71
udO_16 5.8499e-04 1 1  ON 72
udO_17 1.0103e-03 1 1  ON 73
udO_18 -6.1100e-04 1 1  ON 74
udO_19 7.0676e-04 1 1  ON 75
udO_20 -4.1948e-04 1 1  ON 76
udO_21 2.0448e-05 1 1  ON 77
udO_22 -9.6282e-05 1 1  ON 78
udO_23 3.0043e-04 1 1  ON 79
udO_24 -7.1536e-05 1 1  ON 80
udO_25 1.9949e-05 1 1  ON 81
  </optVariables>
   Restore the number of walkers to 1, removing 0 walkers.
</opt>
</optimization-report>
  QMC Execution time = 4.9809e+00 secs 
  Reusing QMCFixedSampleLinearOptimize
 Using QMCCostFunction::QMCCostFunction

=========================================================
  Start QMCFixedSampleLinearOptimize
  File Root O.log.s005 append = no 
=========================================================
  Skip QMCDriver::putQMCInfo 
  Resetting Properties of the walkers 1 x 13

=========================================================
  Start VMC
  File Root O.log.s005 append = no 
=========================================================
Using existing walkers 
  Resetting Properties of the walkers 1 x 13

<vmc function="put">
  qmc_counter=4  my_counter=4
  time step      = 1.5000e-01
  blocks         = 300
  steps          = 2
  substeps       = 5
  current        = 0
  target samples = 5.1200e+05
  walkers/mpi    = 1

  stepsbetweensamples = 1
<parameter name="blocks" condition="int">300</parameter>
<parameter name="blocks_between_recompute" condition="int">0</parameter>
<parameter name="check_properties" condition="int">100</parameter>
<parameter name="checkproperties" condition="int">100</parameter>
<parameter name="current" condition="int">0</parameter>
<parameter name="dmcwalkersperthread" condition="real">5.0000e+02</parameter>
<parameter name="maxcpusecs" condition="real">3.6000e+05</parameter>
<parameter name="record_configs" condition="int">0</parameter>
<parameter name="record_walkers" condition="int">1</parameter>
<parameter name="recordconfigs" condition="int">0</parameter>
<parameter name="recordwalkers" condition="int">1</parameter>
<parameter name="rewind" condition="int">0</parameter>
<parameter name="samples" condition="real">5.1200e+05</parameter>
<parameter name="samplesperthread" condition="real">5.0000e+02</parameter>
<parameter name="steps" condition="int">2</parameter>
<parameter name="stepsbetweensamples" condition="int">1</parameter>
<parameter name="store_configs" condition="int">0</parameter>
<parameter name="storeconfigs" condition="int">0</parameter>
<parameter name="sub_steps" condition="int">5</parameter>
<parameter name="substeps" condition="int">5</parameter>
<parameter name="tau" condition="au">1.5000e-01</parameter>
<parameter name="time_step" condition="au">1.5000e-01</parameter>
<parameter name="timestep" condition="au">1.5000e-01</parameter>
<parameter name="use_drift" condition="string">no</parameter>
<parameter name="usedrift" condition="string">no</parameter>
<parameter name="walkers" condition="int">1</parameter>
<parameter name="warmup_steps" condition="int">0</parameter>
<parameter name="warmupsteps" condition="int">0</parameter>
  DumpConfig==false Nothing (configurations, state) will be saved.
  Walker Samples are dumped every 1 steps.
</vmc>
  EstimatorManagerBase::add replace LocalEnergy estimator.
  EstimatorManagerBase::add replace LocalEnergy estimator.
<optimization-report>
<vmc stage="main" blocks="300">
  Cannot make clones again. Use existing 1 clones
  Initial partition of walkers 0 1 
  Using Particle by Particle moves
  Walker moves without drift
  Total Sample Size   =512000
  Walker distribution on root = 0 1 
  Using Locality Approximation
===== Memory Usage after the buffer registration =====
Available memory on node 0, free + buffers : 82439 MB
Memory footprint by rank 0 on node 0       : 101 MB
==================================================
====================================================
  SimpleFixedNodeBranch::finalize after a VMC block
    QMC counter        = 5
    time step          = 0.15
    reference energy   = -15.8553
    reference variance = 0.458215
====================================================
  Execution time = 3.0590e+00
</vmc>
<opt stage="setup">
  <log>
   Reading configurations from h5FileRoot O.log.s005
  QMCCostFunction is created with 1 threads.
  Using Nonlocal PP in Opt: NonLocalECP
   Number of samples loaded to each thread : 500 
  VMC Eavg = -1.5860e+01
  VMC Evar = 2.1298e-01
  Total weights = 5.1200e+05
  Execution time = 9.7343e-01
  </log>
</opt>
<opt stage="main" walkers="512000">
  <log>

*****************************************
Building overlap and Hamiltonian matrices
*****************************************

Among totally 82 optimized parameters, largest LM parameter change : 3.6834e-02 at parameter 20

******************************************************************************
Init Cost =  -1.5056e+01    New Cost =  -1.5056e+01  Delta Cost =  -1.3367e-04
******************************************************************************

The new set of parameters is valid. Updating the trial wave function!

*****************************************************************************
Applying the update for shift_i =   1.0000e-02     and shift_s =   3.9062e-03
*****************************************************************************
  Execution time = 4.9430e+00
  </log>
  <optVariables href="O.log.s005.opt.xml">
uu_0 1.9485e-01 1 1  ON 0
uu_1 8.5932e-02 1 1  ON 1
uu_2 1.7668e-02 1 1  ON 2
uu_3 -2.0640e-02 1 1  ON 3
uu_4 -4.8826e-02 1 1  ON 4
uu_5 -7.0855e-02 1 1  ON 5
uu_6 -8.1405e-02 1 1  ON 6
uu_7 -8.7353e-02 1 1  ON 7
uu_8 -8.1145e-02 1 1  ON 8
uu_9 -5.5760e-02 1 1  ON 9
ud_0 4.7922e-01 1 1  ON 10
ud_1 2.5207e-01 1 1  ON 11
ud_2 1.1245e-01 1 1  ON 12
ud_3 3.0303e-02 1 1  ON 13
ud_4 -1.4939e-02 1 1  ON 14
ud_5 -4.1022e-02 1 1  ON 15
ud_6 -5.5630e-02 1 1  ON 16
ud_7 -6.9766e-02 1 1  ON 17
ud_8 -7.1586e-02 1 1  ON 18
ud_9 -5.4961e-02 1 1  ON 19
eO_0 -8.5416e-01 1 1  ON 20
eO_1 -8.2452e-01 1 1  ON 21
eO_2 -4.5043e-01 1 1  ON 22
eO_3 5.6124e-02 1 1  ON 23
eO_4 3.7558e-01 1 1  ON 24
eO_5 3.8183e-01 1 1  ON 25
eO_6 4.1795e-01 1 1  ON 26
eO_7 3.9508e-01 1 1  ON 27
eO_8 3.1839e-01 1 1  ON 28
eO_9 1.7432e-01 1 1  ON 29
uuO_0 3.9377e-04 1 1  ON 30
uuO_1 2.7186e-04 1 1  ON 31
uuO_2 -5.3946e-04 1 1  ON 32
uuO_3 -7.2035e-04 1 1  ON 33
uuO_4 -4.0870e-04 1 1  ON 34
uuO_5 1.2296e-04 1 1  ON 35
uuO_6 -4.9257e-04 1 1  ON 36
uuO_7 9.9177e-05 1 1  ON 37
uuO_8 6.0334e-04 1 1  ON 38
uuO_9 1.8162e-04 1 1  ON 39
uuO_10 -8.4010e-04 1 1  ON 40
uuO_11 7.1014e-04 1 1  ON 41
uuO_12 -7.3698e-04 1 1  ON 42
uuO_13 1.0277e-03 1 1  ON 43
uuO_14 7.4509e-04 1 1  ON 44
uuO_15 -6.6592e-06 1 1  ON 45
uuO_16 -4.4152e-04 1 1  ON 46
uuO_17 2.6624e-03 1 1  ON 47
uuO_18 -1.8176e-03 1 1  ON 48
uuO_19 8.5176e-04 1 1  ON 49
uuO_20 -4.7591e-04 1 1  ON 50
uuO_21 1.3055e-05 1 1  ON 51
uuO_22 -9.1953e-05 1 1  ON 52
uuO_23 2.9033e-04 1 1  ON 53
uuO_24 -3.1103e-05 1 1  ON 54
uuO_25 7.9473e-06 1 1  ON 55
udO_0 -3.6732e-04 1 1  ON 56
udO_1 6.4558e-04 1 1  ON 57
udO_2 1.3738e-03 1 1  ON 58
udO_3 -2.5376e-04 1 1  ON 59
udO_4 -5.0899e-04 1 1  ON 60
udO_5 5.0786e-05 1 1  ON 61
udO_6 1.6065e-03 1 1  ON 62
udO_7 -1.6282e-04 1 1  ON 63
udO_8 1.8329e-03 1 1  ON 64
udO_9 -6.3450e-04 1 1  ON 65
udO_10 -2.5416e-04 1 1  ON 66
udO_11 -6.0780e-04 1 1  ON 67
udO_12 -9.0780e-04 1 1  ON 68
udO_13 4.4185e-04 1 1  ON 69
udO_14 6.5069e-04 1 1  ON 70
udO_15 3.3113e-05 1 1  ON 71
udO_16 7.5849e-04 1 1  ON 72
udO_17 1.0904e-03 1 1  ON 73
udO_18 -5.7572e-04 1 1  ON 74
udO_19 7.5712e-04 1 1  ON 75
udO_20 -5.1027e-04 1 1  ON 76
udO_21 5.5957e-06 1 1  ON 77
udO_22 -1.0219e-04 1 1  ON 78
udO_23 3.4389e-04 1 1  ON 79
udO_24 -7.4757e-05 1 1  ON 80
udO_25 2.1710e-05 1 1  ON 81
  </optVariables>
   Restore the number of walkers to 1, removing 0 walkers.
</opt>
</optimization-report>
  QMC Execution time = 4.9592e+00 secs 
  Reusing QMCFixedSampleLinearOptimize
 Using QMCCostFunction::QMCCostFunction

=========================================================
  Start QMCFixedSampleLinearOptimize
  File Root O.log.s006 append = no 
=========================================================
  Skip QMCDriver::putQMCInfo 
  Resetting Properties of the walkers 1 x 13

=========================================================
  Start VMC
  File Root O.log.s006 append = no 
=========================================================
Using existing walkers 
  Resetting Properties of the walkers 1 x 13

<vmc function="put">
  qmc_counter=5  my_counter=5
  time step      = 1.5000e-01
  blocks         = 300
  steps          = 2
  substeps       = 5
  current        = 0
  target samples = 5.1200e+05
  walkers/mpi    = 1

  stepsbetweensamples = 1
<parameter name="blocks" condition="int">300</parameter>
<parameter name="blocks_between_recompute" condition="int">0</parameter>
<parameter name="check_properties" condition="int">100</parameter>
<parameter name="checkproperties" condition="int">100</parameter>
<parameter name="current" condition="int">0</parameter>
<parameter name="dmcwalkersperthread" condition="real">5.0000e+02</parameter>
<parameter name="maxcpusecs" condition="real">3.6000e+05</parameter>
<parameter name="record_configs" condition="int">0</parameter>
<parameter name="record_walkers" condition="int">1</parameter>
<parameter name="recordconfigs" condition="int">0</parameter>
<parameter name="recordwalkers" condition="int">1</parameter>
<parameter name="rewind" condition="int">0</parameter>
<parameter name="samples" condition="real">5.1200e+05</parameter>
<parameter name="samplesperthread" condition="real">5.0000e+02</parameter>
<parameter name="steps" condition="int">2</parameter>
<parameter name="stepsbetweensamples" condition="int">1</parameter>
<parameter name="store_configs" condition="int">0</parameter>
<parameter name="storeconfigs" condition="int">0</parameter>
<parameter name="sub_steps" condition="int">5</parameter>
<parameter name="substeps" condition="int">5</parameter>
<parameter name="tau" condition="au">1.5000e-01</parameter>
<parameter name="time_step" condition="au">1.5000e-01</parameter>
<parameter name="timestep" condition="au">1.5000e-01</parameter>
<parameter name="use_drift" condition="string">no</parameter>
<parameter name="usedrift" condition="string">no</parameter>
<parameter name="walkers" condition="int">1</parameter>
<parameter name="warmup_steps" condition="int">0</parameter>
<parameter name="warmupsteps" condition="int">0</parameter>
  DumpConfig==false Nothing (configurations, state) will be saved.
  Walker Samples are dumped every 1 steps.
</vmc>
  EstimatorManagerBase::add replace LocalEnergy estimator.
  EstimatorManagerBase::add replace LocalEnergy estimator.
<optimization-report>
<vmc stage="main" blocks="300">
  Cannot make clones again. Use existing 1 clones
  Initial partition of walkers 0 1 
  Using Particle by Particle moves
  Walker moves without drift
  Total Sample Size   =512000
  Walker distribution on root = 0 1 
  Using Locality Approximation
===== Memory Usage after the buffer registration =====
Available memory on node 0, free + buffers : 82436 MB
Memory footprint by rank 0 on node 0       : 103 MB
==================================================
====================================================
  SimpleFixedNodeBranch::finalize after a VMC block
    QMC counter        = 6
    time step          = 0.15
    reference energy   = -15.8638
    reference variance = 0.240631
====================================================
  Execution time = 3.0086e+00
</vmc>
<opt stage="setup">
  <log>
   Reading configurations from h5FileRoot O.log.s006
  QMCCostFunction is created with 1 threads.
  Using Nonlocal PP in Opt: NonLocalECP
   Number of samples loaded to each thread : 500 
  VMC Eavg = -1.5859e+01
  VMC Evar = 2.0298e-01
  Total weights = 5.1200e+05
  Execution time = 1.0079e+00
  </log>
</opt>
<opt stage="main" walkers="512000">
  <log>

*****************************************
Building overlap and Hamiltonian matrices
*****************************************

Among totally 82 optimized parameters, largest LM parameter change : 3.2274e-02 at parameter 20

******************************************************************************
Init Cost =  -1.5056e+01    New Cost =  -1.5056e+01  Delta Cost =  -2.3733e-04
******************************************************************************

The new set of parameters is valid. Updating the trial wave function!

*****************************************************************************
Applying the update for shift_i =   1.0000e-02     and shift_s =   3.9062e-03
*****************************************************************************
  Execution time = 4.9573e+00
  </log>
  <optVariables href="O.log.s006.opt.xml">
uu_0 1.9444e-01 1 1  ON 0
uu_1 8.6332e-02 1 1  ON 1
uu_2 1.8504e-02 1 1  ON 2
uu_3 -1.9664e-02 1 1  ON 3
uu_4 -4.8376e-02 1 1  ON 4
uu_5 -7.1653e-02 1 1  ON 5
uu_6 -8.2728e-02 1 1  ON 6
uu_7 -8.8567e-02 1 1  ON 7
uu_8 -8.1644e-02 1 1  ON 8
uu_9 -5.7672e-02 1 1  ON 9
ud_0 4.8325e-01 1 1  ON 10
ud_1 2.5557e-01 1 1  ON 11
ud_2 1.1570e-01 1 1  ON 12
ud_3 3.2861e-02 1 1  ON 13
ud_4 -1.2916e-02 1 1  ON 14
ud_5 -4.0101e-02 1 1  ON 15
ud_6 -5.5731e-02 1 1  ON 16
ud_7 -6.9033e-02 1 1  ON 17
ud_8 -7.1344e-02 1 1  ON 18
ud_9 -5.4201e-02 1 1  ON 19
eO_0 -8.8643e-01 1 1  ON 20
eO_1 -8.4827e-01 1 1  ON 21
eO_2 -4.7515e-01 1 1  ON 22
eO_3 3.3900e-02 1 1  ON 23
eO_4 3.7164e-01 1 1  ON 24
eO_5 3.9597e-01 1 1  ON 25
eO_6 4.3643e-01 1 1  ON 26
eO_7 4.1887e-01 1 1  ON 27
eO_8 3.3964e-01 1 1  ON 28
eO_9 1.9103e-01 1 1  ON 29
uuO_0 3.9710e-04 1 1  ON 30
uuO_1 2.7634e-04 1 1  ON 31
uuO_2 -5.8480e-04 1 1  ON 32
uuO_3 -7.5219e-04 1 1  ON 33
uuO_4 -4.2966e-04 1 1  ON 34
uuO_5 1.2776e-04 1 1  ON 35
uuO_6 -5.3398e-04 1 1  ON 36
uuO_7 1.1898e-04 1 1  ON 37
uuO_8 6.3522e-04 1 1  ON 38
uuO_9 2.1876e-04 1 1  ON 39
uuO_10 -8.9564e-04 1 1  ON 40
uuO_11 7.9532e-04 1 1  ON 41
uuO_12 -7.9286e-04 1 1  ON 42
uuO_13 1.0923e-03 1 1  ON 43
uuO_14 8.0900e-04 1 1  ON 44
uuO_15 -8.4038e-06 1 1  ON 45
uuO_16 -6.5802e-04 1 1  ON 46
uuO_17 2.9179e-03 1 1  ON 47
uuO_18 -2.0026e-03 1 1  ON 48
uuO_19 9.2533e-04 1 1  ON 49
uuO_20 -4.1828e-04 1 1  ON 50
uuO_21 -5.9633e-06 1 1  ON 51
uuO_22 -9.5745e-05 1 1  ON 52
uuO_23 2.6153e-04 1 1  ON 53
uuO_24 -9.5947e-06 1 1  ON 54
uuO_25 3.9895e-06 1 1  ON 55
udO_0 -3.5444e-04 1 1  ON 56
udO_1 5.7242e-04 1 1  ON 57
udO_2 1.3129e-03 1 1  ON 58
udO_3 -1.8557e-04 1 1  ON 59
udO_4 -4.5265e-04 1 1  ON 60
udO_5 5.9577e-05 1 1  ON 61
udO_6 1.4436e-03 1 1  ON 62
udO_7 -1.2400e-04 1 1  ON 63
udO_8 1.7279e-03 1 1  ON 64
udO_9 -5.3658e-04 1 1  ON 65
udO_10 -1.5818e-04 1 1  ON 66
udO_11 -7.0142e-04 1 1  ON 67
udO_12 -8.4746e-04 1 1  ON 68
udO_13 3.3634e-04 1 1  ON 69
udO_14 6.1759e-04 1 1  ON 70
udO_15 2.9861e-05 1 1  ON 71
udO_16 6.9921e-04 1 1  ON 72
udO_17 8.4672e-04 1 1  ON 73
udO_18 -2.6966e-04 1 1  ON 74
udO_19 6.7323e-04 1 1  ON 75
udO_20 -4.6859e-04 1 1  ON 76
udO_21 -6.9937e-05 1 1  ON 77
udO_22 -7.7237e-05 1 1  ON 78
udO_23 3.4948e-04 1 1  ON 79
udO_24 -4.7547e-05 1 1  ON 80
udO_25 1.1894e-05 1 1  ON 81
  </optVariables>
   Restore the number of walkers to 1, removing 0 walkers.
</opt>
</optimization-report>
  QMC Execution time = 4.9726e+00 secs 
  Reusing QMCFixedSampleLinearOptimize
 Using QMCCostFunction::QMCCostFunction

=========================================================
  Start QMCFixedSampleLinearOptimize
  File Root O.log.s007 append = no 
=========================================================
  Skip QMCDriver::putQMCInfo 
  Resetting Properties of the walkers 1 x 13

=========================================================
  Start VMC
  File Root O.log.s007 append = no 
=========================================================
Using existing walkers 
  Resetting Properties of the walkers 1 x 13

<vmc function="put">
  qmc_counter=6  my_counter=6
  time step      = 1.5000e-01
  blocks         = 300
  steps          = 2
  substeps       = 5
  current        = 0
  target samples = 5.1200e+05
  walkers/mpi    = 1

  stepsbetweensamples = 1
<parameter name="blocks" condition="int">300</parameter>
<parameter name="blocks_between_recompute" condition="int">0</parameter>
<parameter name="check_properties" condition="int">100</parameter>
<parameter name="checkproperties" condition="int">100</parameter>
<parameter name="current" condition="int">0</parameter>
<parameter name="dmcwalkersperthread" condition="real">5.0000e+02</parameter>
<parameter name="maxcpusecs" condition="real">3.6000e+05</parameter>
<parameter name="record_configs" condition="int">0</parameter>
<parameter name="record_walkers" condition="int">1</parameter>
<parameter name="recordconfigs" condition="int">0</parameter>
<parameter name="recordwalkers" condition="int">1</parameter>
<parameter name="rewind" condition="int">0</parameter>
<parameter name="samples" condition="real">5.1200e+05</parameter>
<parameter name="samplesperthread" condition="real">5.0000e+02</parameter>
<parameter name="steps" condition="int">2</parameter>
<parameter name="stepsbetweensamples" condition="int">1</parameter>
<parameter name="store_configs" condition="int">0</parameter>
<parameter name="storeconfigs" condition="int">0</parameter>
<parameter name="sub_steps" condition="int">5</parameter>
<parameter name="substeps" condition="int">5</parameter>
<parameter name="tau" condition="au">1.5000e-01</parameter>
<parameter name="time_step" condition="au">1.5000e-01</parameter>
<parameter name="timestep" condition="au">1.5000e-01</parameter>
<parameter name="use_drift" condition="string">no</parameter>
<parameter name="usedrift" condition="string">no</parameter>
<parameter name="walkers" condition="int">1</parameter>
<parameter name="warmup_steps" condition="int">0</parameter>
<parameter name="warmupsteps" condition="int">0</parameter>
  DumpConfig==false Nothing (configurations, state) will be saved.
  Walker Samples are dumped every 1 steps.
</vmc>
  EstimatorManagerBase::add replace LocalEnergy estimator.
  EstimatorManagerBase::add replace LocalEnergy estimator.
<optimization-report>
<vmc stage="main" blocks="300">
  Cannot make clones again. Use existing 1 clones
  Initial partition of walkers 0 1 
  Using Particle by Particle moves
  Walker moves without drift
  Total Sample Size   =512000
  Walker distribution on root = 0 1 
  Using Locality Approximation
===== Memory Usage after the buffer registration =====
Available memory on node 0, free + buffers : 82434 MB
Memory footprint by rank 0 on node 0       : 105 MB
==================================================
====================================================
  SimpleFixedNodeBranch::finalize after a VMC block
    QMC counter        = 7
    time step          = 0.15
    reference energy   = -15.8594
    reference variance = 0.199846
====================================================
  Execution time = 3.3415e+00
</vmc>
<opt stage="setup">
  <log>
   Reading configurations from h5FileRoot O.log.s007
  QMCCostFunction is created with 1 threads.
  Using Nonlocal PP in Opt: NonLocalECP
   Number of samples loaded to each thread : 500 
  VMC Eavg = -1.5861e+01
  VMC Evar = 1.9806e-01
  Total weights = 5.1200e+05
  Execution time = 1.0440e+00
  </log>
</opt>
<opt stage="main" walkers="512000">
  <log>

*****************************************
Building overlap and Hamiltonian matrices
*****************************************

Among totally 82 optimized parameters, largest LM parameter change : 2.9466e-02 at parameter 20

******************************************************************************
Init Cost =  -1.5058e+01    New Cost =  -1.5058e+01  Delta Cost =  -9.4669e-05
******************************************************************************

The new set of parameters is valid. Updating the trial wave function!

*****************************************************************************
Applying the update for shift_i =   1.0000e-02     and shift_s =   3.9062e-03
*****************************************************************************
  Execution time = 5.3350e+00
  </log>
  <optVariables href="O.log.s007.opt.xml">
uu_0 1.9501e-01 1 1  ON 0
uu_1 8.7386e-02 1 1  ON 1
uu_2 2.0132e-02 1 1  ON 2
uu_3 -1.8177e-02 1 1  ON 3
uu_4 -4.6225e-02 1 1  ON 4
uu_5 -6.9519e-02 1 1  ON 5
uu_6 -8.1317e-02 1 1  ON 6
uu_7 -8.8287e-02 1 1  ON 7
uu_8 -8.3125e-02 1 1  ON 8
uu_9 -6.1169e-02 1 1  ON 9
ud_0 4.8628e-01 1 1  ON 10
ud_1 2.5903e-01 1 1  ON 11
ud_2 1.1947e-01 1 1  ON 12
ud_3 3.6430e-02 1 1  ON 13
ud_4 -9.9899e-03 1 1  ON 14
ud_5 -3.7722e-02 1 1  ON 15
ud_6 -5.3611e-02 1 1  ON 16
ud_7 -6.8484e-02 1 1  ON 17
ud_8 -7.2291e-02 1 1  ON 18
ud_9 -5.6422e-02 1 1  ON 19
eO_0 -9.1590e-01 1 1  ON 20
eO_1 -8.6903e-01 1 1  ON 21
eO_2 -4.9543e-01 1 1  ON 22
eO_3 1.7517e-02 1 1  ON 23
eO_4 3.6819e-01 1 1  ON 24
eO_5 4.1102e-01 1 1  ON 25
eO_6 4.4839e-01 1 1  ON 26
eO_7 4.3502e-01 1 1  ON 27
eO_8 3.5884e-01 1 1  ON 28
eO_9 2.0661e-01 1 1  ON 29
uuO_0 4.1402e-04 1 1  ON 30
uuO_1 3.1351e-04 1 1  ON 31
uuO_2 -6.2831e-04 1 1  ON 32
uuO_3 -7.7349e-04 1 1  ON 33
uuO_4 -4.2134e-04 1 1  ON 34
uuO_5 1.3453e-04 1 1  ON 35
uuO_6 -4.2838e-04 1 1  ON 36
uuO_7 -1.0682e-04 1 1  ON 37
uuO_8 4.6395e-04 1 1  ON 38
uuO_9 1.4423e-04 1 1  ON 39
uuO_10 -9.4673e-04 1 1  ON 40
uuO_11 1.0546e-03 1 1  ON 41
uuO_12 -7.2997e-04 1 1  ON 42
uuO_13 1.1384e-03 1 1  ON 43
uuO_14 6.9445e-04 1 1  ON 44
uuO_15 5.0737e-07 1 1  ON 45
uuO_16 -4.3560e-04 1 1  ON 46
uuO_17 2.8592e-03 1 1  ON 47
uuO_18 -2.2011e-03 1 1  ON 48
uuO_19 9.0645e-04 1 1  ON 49
uuO_20 -5.3037e-04 1 1  ON 50
uuO_21 9.2971e-05 1 1  ON 51
uuO_22 -1.1074e-04 1 1  ON 52
uuO_23 3.3181e-04 1 1  ON 53
uuO_24 -5.1112e-05 1 1  ON 54
uuO_25 1.3764e-05 1 1  ON 55
udO_0 -3.8186e-04 1 1  ON 56
udO_1 6.1890e-04 1 1  ON 57
udO_2 1.3627e-03 1 1  ON 58
udO_3 -2.2418e-04 1 1  ON 59
udO_4 -4.9994e-04 1 1  ON 60
udO_5 6.3355e-05 1 1  ON 61
udO_6 1.5686e-03 1 1  ON 62
udO_7 -1.5845e-04 1 1  ON 63
udO_8 1.7999e-03 1 1  ON 64
udO_9 -5.9328e-04 1 1  ON 65
udO_10 -2.3896e-04 1 1  ON 66
udO_11 -6.1254e-04 1 1  ON 67
udO_12 -8.9703e-04 1 1  ON 68
udO_13 4.0612e-04 1 1  ON 69
udO_14 6.3771e-04 1 1  ON 70
udO_15 3.3708e-05 1 1  ON 71
udO_16 7.2281e-04 1 1  ON 72
udO_17 1.0070e-03 1 1  ON 73
udO_18 -4.7603e-04 1 1  ON 74
udO_19 7.3149e-04 1 1  ON 75
udO_20 -4.9021e-04 1 1  ON 76
udO_21 -2.8548e-05 1 1  ON 77
udO_22 -9.1071e-05 1 1  ON 78
udO_23 3.5352e-04 1 1  ON 79
udO_24 -5.8038e-05 1 1  ON 80
udO_25 1.5857e-05 1 1  ON 81
  </optVariables>
   Restore the number of walkers to 1, removing 0 walkers.
</opt>
</optimization-report>
  QMC Execution time = 5.3517e+00 secs 
  Reusing QMCFixedSampleLinearOptimize
 Using QMCCostFunction::QMCCostFunction

=========================================================
  Start QMCFixedSampleLinearOptimize
  File Root O.log.s008 append = no 
=========================================================
  Skip QMCDriver::putQMCInfo 
  Resetting Properties of the walkers 1 x 13

=========================================================
  Start VMC
  File Root O.log.s008 append = no 
=========================================================
Using existing walkers 
  Resetting Properties of the walkers 1 x 13

<vmc function="put">
  qmc_counter=7  my_counter=7
  time step      = 1.5000e-01
  blocks         = 300
  steps          = 2
  substeps       = 5
  current        = 0
  target samples = 5.1200e+05
  walkers/mpi    = 1

  stepsbetweensamples = 1
<parameter name="blocks" condition="int">300</parameter>
<parameter name="blocks_between_recompute" condition="int">0</parameter>
<parameter name="check_properties" condition="int">100</parameter>
<parameter name="checkproperties" condition="int">100</parameter>
<parameter name="current" condition="int">0</parameter>
<parameter name="dmcwalkersperthread" condition="real">5.0000e+02</parameter>
<parameter name="maxcpusecs" condition="real">3.6000e+05</parameter>
<parameter name="record_configs" condition="int">0</parameter>
<parameter name="record_walkers" condition="int">1</parameter>
<parameter name="recordconfigs" condition="int">0</parameter>
<parameter name="recordwalkers" condition="int">1</parameter>
<parameter name="rewind" condition="int">0</parameter>
<parameter name="samples" condition="real">5.1200e+05</parameter>
<parameter name="samplesperthread" condition="real">5.0000e+02</parameter>
<parameter name="steps" condition="int">2</parameter>
<parameter name="stepsbetweensamples" condition="int">1</parameter>
<parameter name="store_configs" condition="int">0</parameter>
<parameter name="storeconfigs" condition="int">0</parameter>
<parameter name="sub_steps" condition="int">5</parameter>
<parameter name="substeps" condition="int">5</parameter>
<parameter name="tau" condition="au">1.5000e-01</parameter>
<parameter name="time_step" condition="au">1.5000e-01</parameter>
<parameter name="timestep" condition="au">1.5000e-01</parameter>
<parameter name="use_drift" condition="string">no</parameter>
<parameter name="usedrift" condition="string">no</parameter>
<parameter name="walkers" condition="int">1</parameter>
<parameter name="warmup_steps" condition="int">0</parameter>
<parameter name="warmupsteps" condition="int">0</parameter>
  DumpConfig==false Nothing (configurations, state) will be saved.
  Walker Samples are dumped every 1 steps.
</vmc>
  EstimatorManagerBase::add replace LocalEnergy estimator.
  EstimatorManagerBase::add replace LocalEnergy estimator.
<optimization-report>
<vmc stage="main" blocks="300">
  Cannot make clones again. Use existing 1 clones
  Initial partition of walkers 0 1 
  Using Particle by Particle moves
  Walker moves without drift
  Total Sample Size   =512000
  Walker distribution on root = 0 1 
  Using Locality Approximation
===== Memory Usage after the buffer registration =====
Available memory on node 0, free + buffers : 82431 MB
Memory footprint by rank 0 on node 0       : 107 MB
==================================================
====================================================
  SimpleFixedNodeBranch::finalize after a VMC block
    QMC counter        = 8
    time step          = 0.15
    reference energy   = -15.8787
    reference variance = 0.193994
====================================================
  Execution time = 3.0105e+00
</vmc>
<opt stage="setup">
  <log>
   Reading configurations from h5FileRoot O.log.s008
  QMCCostFunction is created with 1 threads.
  Using Nonlocal PP in Opt: NonLocalECP
   Number of samples loaded to each thread : 500 
  VMC Eavg = -1.5860e+01
  VMC Evar = 2.0520e-01
  Total weights = 5.1200e+05
  Execution time = 1.0081e+00
  </log>
</opt>
<opt stage="main" walkers="512000">
  <log>

*****************************************
Building overlap and Hamiltonian matrices
*****************************************

Among totally 82 optimized parameters, largest LM parameter change : 2.6787e-02 at parameter 20

******************************************************************************
Init Cost =  -1.5057e+01    New Cost =  -1.5057e+01  Delta Cost =  -1.9810e-04
******************************************************************************

The new set of parameters is valid. Updating the trial wave function!

*****************************************************************************
Applying the update for shift_i =   1.0000e-02     and shift_s =   3.9062e-03
*****************************************************************************
  Execution time = 4.9207e+00
  </log>
  <optVariables href="O.log.s008.opt.xml">
uu_0 1.9435e-01 1 1  ON 0
uu_1 8.7366e-02 1 1  ON 1
uu_2 2.1742e-02 1 1  ON 2
uu_3 -1.6196e-02 1 1  ON 3
uu_4 -4.4838e-02 1 1  ON 4
uu_5 -6.8517e-02 1 1  ON 5
uu_6 -8.0928e-02 1 1  ON 6
uu_7 -8.8115e-02 1 1  ON 7
uu_8 -8.4593e-02 1 1  ON 8
uu_9 -6.2382e-02 1 1  ON 9
ud_0 4.8785e-01 1 1  ON 10
ud_1 2.6091e-01 1 1  ON 11
ud_2 1.2145e-01 1 1  ON 12
ud_3 3.8256e-02 1 1  ON 13
ud_4 -8.4688e-03 1 1  ON 14
ud_5 -3.6516e-02 1 1  ON 15
ud_6 -5.3085e-02 1 1  ON 16
ud_7 -6.8336e-02 1 1  ON 17
ud_8 -7.1521e-02 1 1  ON 18
ud_9 -5.6435e-02 1 1  ON 19
eO_0 -9.4269e-01 1 1  ON 20
eO_1 -8.9045e-01 1 1  ON 21
eO_2 -5.1616e-01 1 1  ON 22
eO_3 2.4128e-03 1 1  ON 23
eO_4 3.6387e-01 1 1  ON 24
eO_5 4.2462e-01 1 1  ON 25
eO_6 4.6156e-01 1 1  ON 26
eO_7 4.5091e-01 1 1  ON 27
eO_8 3.7290e-01 1 1  ON 28
eO_9 2.2279e-01 1 1  ON 29
uuO_0 4.0873e-04 1 1  ON 30
uuO_1 2.6576e-04 1 1  ON 31
uuO_2 -5.8187e-04 1 1  ON 32
uuO_3 -7.1867e-04 1 1  ON 33
uuO_4 -3.9277e-04 1 1  ON 34
uuO_5 1.4408e-04 1 1  ON 35
uuO_6 -5.3895e-04 1 1  ON 36
uuO_7 2.0718e-05 1 1  ON 37
uuO_8 5.8868e-04 1 1  ON 38
uuO_9 2.0710e-04 1 1  ON 39
uuO_10 -8.4373e-04 1 1  ON 40
uuO_11 7.4921e-04 1 1  ON 41
uuO_12 -7.3799e-04 1 1  ON 42
uuO_13 1.0758e-03 1 1  ON 43
uuO_14 7.4134e-04 1 1  ON 44
uuO_15 -4.8272e-06 1 1  ON 45
uuO_16 -5.4377e-04 1 1  ON 46
uuO_17 2.6980e-03 1 1  ON 47
uuO_18 -1.7667e-03 1 1  ON 48
uuO_19 8.3749e-04 1 1  ON 49
uuO_20 -4.6002e-04 1 1  ON 50
uuO_21 -2.3726e-05 1 1  ON 51
uuO_22 -8.2134e-05 1 1  ON 52
uuO_23 2.9858e-04 1 1  ON 53
uuO_24 -9.4213e-06 1 1  ON 54
uuO_25 1.7766e-06 1 1  ON 55
udO_0 -4.2029e-04 1 1  ON 56
udO_1 5.7902e-04 1 1  ON 57
udO_2 1.3795e-03 1 1  ON 58
udO_3 -1.5873e-04 1 1  ON 59
udO_4 -4.4404e-04 1 1  ON 60
udO_5 6.9135e-05 1 1  ON 61
udO_6 1.5046e-03 1 1  ON 62
udO_7 -1.9248e-04 1 1  ON 63
udO_8 1.6762e-03 1 1  ON 64
udO_9 -4.9227e-04 1 1  ON 65
udO_10 -1.4006e-04 1 1  ON 66
udO_11 -6.2610e-04 1 1  ON 67
udO_12 -8.0630e-04 1 1  ON 68
udO_13 2.5481e-04 1 1  ON 69
udO_14 5.3424e-04 1 1  ON 70
udO_15 3.7683e-05 1 1  ON 71
udO_16 5.6534e-04 1 1  ON 72
udO_17 7.1108e-04 1 1  ON 73
udO_18 -3.2611e-04 1 1  ON 74
udO_19 6.5287e-04 1 1  ON 75
udO_20 -3.4054e-04 1 1  ON 76
udO_21 -2.8347e-05 1 1  ON 77
udO_22 -8.5130e-05 1 1  ON 78
udO_23 2.8961e-04 1 1  ON 79
udO_24 -5.1822e-05 1 1  ON 80
udO_25 1.5240e-05 1 1  ON 81
  </optVariables>
   Restore the number of walkers to 1, removing 0 walkers.
</opt>
</optimization-report>
  QMC Execution time = 4.9355e+00 secs 
  Reusing QMCFixedSampleLinearOptimize
 Using QMCCostFunction::QMCCostFunction

=========================================================
  Start QMCFixedSampleLinearOptimize
  File Root O.log.s009 append = no 
=========================================================
  Skip QMCDriver::putQMCInfo 
  Resetting Properties of the walkers 1 x 13

=========================================================
  Start VMC
  File Root O.log.s009 append = no 
=========================================================
Using existing walkers 
  Resetting Properties of the walkers 1 x 13

<vmc function="put">
  qmc_counter=8  my_counter=8
  time step      = 1.5000e-01
  blocks         = 300
  steps          = 2
  substeps       = 5
  current        = 0
  target samples = 5.1200e+05
  walkers/mpi    = 1

  stepsbetweensamples = 1
<parameter name="blocks" condition="int">300</parameter>
<parameter name="blocks_between_recompute" condition="int">0</parameter>
<parameter name="check_properties" condition="int">100</parameter>
<parameter name="checkproperties" condition="int">100</parameter>
<parameter name="current" condition="int">0</parameter>
<parameter name="dmcwalkersperthread" condition="real">5.0000e+02</parameter>
<parameter name="maxcpusecs" condition="real">3.6000e+05</parameter>
<parameter name="record_configs" condition="int">0</parameter>
<parameter name="record_walkers" condition="int">1</parameter>
<parameter name="recordconfigs" condition="int">0</parameter>
<parameter name="recordwalkers" condition="int">1</parameter>
<parameter name="rewind" condition="int">0</parameter>
<parameter name="samples" condition="real">5.1200e+05</parameter>
<parameter name="samplesperthread" condition="real">5.0000e+02</parameter>
<parameter name="steps" condition="int">2</parameter>
<parameter name="stepsbetweensamples" condition="int">1</parameter>
<parameter name="store_configs" condition="int">0</parameter>
<parameter name="storeconfigs" condition="int">0</parameter>
<parameter name="sub_steps" condition="int">5</parameter>
<parameter name="substeps" condition="int">5</parameter>
<parameter name="tau" condition="au">1.5000e-01</parameter>
<parameter name="time_step" condition="au">1.5000e-01</parameter>
<parameter name="timestep" condition="au">1.5000e-01</parameter>
<parameter name="use_drift" condition="string">no</parameter>
<parameter name="usedrift" condition="string">no</parameter>
<parameter name="walkers" condition="int">1</parameter>
<parameter name="warmup_steps" condition="int">0</parameter>
<parameter name="warmupsteps" condition="int">0</parameter>
  DumpConfig==false Nothing (configurations, state) will be saved.
  Walker Samples are dumped every 1 steps.
</vmc>
  EstimatorManagerBase::add replace LocalEnergy estimator.
  EstimatorManagerBase::add replace LocalEnergy estimator.
<optimization-report>
<vmc stage="main" blocks="300">
  Cannot make clones again. Use existing 1 clones
  Initial partition of walkers 0 1 
  Using Particle by Particle moves
  Walker moves without drift
  Total Sample Size   =512000
  Walker distribution on root = 0 1 
  Using Locality Approximation
===== Memory Usage after the buffer registration =====
Available memory on node 0, free + buffers : 82428 MB
Memory footprint by rank 0 on node 0       : 110 MB
==================================================
====================================================
  SimpleFixedNodeBranch::finalize after a VMC block
    QMC counter        = 9
    time step          = 0.15
    reference energy   = -15.8531
    reference variance = 0.183365
====================================================
  Execution time = 2.9824e+00
</vmc>
<opt stage="setup">
  <log>
   Reading configurations from h5FileRoot O.log.s009
  QMCCostFunction is created with 1 threads.
  Using Nonlocal PP in Opt: NonLocalECP
   Number of samples loaded to each thread : 500 
  VMC Eavg = -1.5860e+01
  VMC Evar = 2.0052e-01
  Total weights = 5.1200e+05
  Execution time = 1.0415e+00
  </log>
</opt>
<opt stage="main" walkers="512000">
  <log>

*****************************************
Building overlap and Hamiltonian matrices
*****************************************

Among totally 82 optimized parameters, largest LM parameter change : 2.3305e-02 at parameter 20

******************************************************************************
Init Cost =  -1.5057e+01    New Cost =  -1.5057e+01  Delta Cost =   3.0956e-05
******************************************************************************

The new set of parameters is valid. Updating the trial wave function!

*****************************************************************************
Applying the update for shift_i =   1.0000e-02     and shift_s =   3.9062e-03
*****************************************************************************
  Execution time = 4.9669e+00
  </log>
  <optVariables href="O.log.s009.opt.xml">
uu_0 1.9647e-01 1 1  ON 0
uu_1 8.8990e-02 1 1  ON 1
uu_2 2.1945e-02 1 1  ON 2
uu_3 -1.7013e-02 1 1  ON 3
uu_4 -4.6422e-02 1 1  ON 4
uu_5 -7.0464e-02 1 1  ON 5
uu_6 -8.3455e-02 1 1  ON 6
uu_7 -9.2188e-02 1 1  ON 7
uu_8 -8.9370e-02 1 1  ON 8
uu_9 -6.4032e-02 1 1  ON 9
ud_0 4.8900e-01 1 1  ON 10
ud_1 2.6165e-01 1 1  ON 11
ud_2 1.2146e-01 1 1  ON 12
ud_3 3.7798e-02 1 1  ON 13
ud_4 -8.7846e-03 1 1  ON 14
ud_5 -3.6987e-02 1 1  ON 15
ud_6 -5.3690e-02 1 1  ON 16
ud_7 -6.8713e-02 1 1  ON 17
ud_8 -7.2671e-02 1 1  ON 18
ud_9 -5.8045e-02 1 1  ON 19
eO_0 -9.6599e-01 1 1  ON 20
eO_1 -9.0924e-01 1 1  ON 21
eO_2 -5.3526e-01 1 1  ON 22
eO_3 -1.5911e-02 1 1  ON 23
eO_4 3.5762e-01 1 1  ON 24
eO_5 4.3345e-01 1 1  ON 25
eO_6 4.7084e-01 1 1  ON 26
eO_7 4.6500e-01 1 1  ON 27
eO_8 3.8710e-01 1 1  ON 28
eO_9 2.3975e-01 1 1  ON 29
uuO_0 3.5498e-04 1 1  ON 30
uuO_1 2.7071e-04 1 1  ON 31
uuO_2 -4.9782e-04 1 1  ON 32
uuO_3 -7.0136e-04 1 1  ON 33
uuO_4 -4.1202e-04 1 1  ON 34
uuO_5 1.4617e-04 1 1  ON 35
uuO_6 -4.7952e-04 1 1  ON 36
uuO_7 1.0594e-04 1 1  ON 37
uuO_8 6.4174e-04 1 1  ON 38
uuO_9 2.1659e-04 1 1  ON 39
uuO_10 -8.4214e-04 1 1  ON 40
uuO_11 6.5998e-04 1 1  ON 41
uuO_12 -7.4443e-04 1 1  ON 42
uuO_13 9.8584e-04 1 1  ON 43
uuO_14 7.2913e-04 1 1  ON 44
uuO_15 -1.8619e-06 1 1  ON 45
uuO_16 -5.0541e-04 1 1  ON 46
uuO_17 2.5371e-03 1 1  ON 47
uuO_18 -1.6587e-03 1 1  ON 48
uuO_19 8.2590e-04 1 1  ON 49
uuO_20 -4.0253e-04 1 1  ON 50
uuO_21 -2.9721e-05 1 1  ON 51
uuO_22 -8.2309e-05 1 1  ON 52
uuO_23 2.7731e-04 1 1  ON 53
uuO_24 -8.8594e-06 1 1  ON 54
uuO_25 2.6961e-06 1 1  ON 55
udO_0 -3.8628e-04 1 1  ON 56
udO_1 5.6540e-04 1 1  ON 57
udO_2 1.3730e-03 1 1  ON 58
udO_3 -1.3165e-04 1 1  ON 59
udO_4 -4.3267e-04 1 1  ON 60
udO_5 7.6828e-05 1 1  ON 61
udO_6 1.4975e-03 1 1  ON 62
udO_7 -9.9767e-05 1 1  ON 63
udO_8 1.6674e-03 1 1  ON 64
udO_9 -5.6749e-04 1 1  ON 65
udO_10 -1.0994e-04 1 1  ON 66
udO_11 -7.6756e-04 1 1  ON 67
udO_12 -7.7599e-04 1 1  ON 68
udO_13 2.4377e-04 1 1  ON 69
udO_14 5.2744e-04 1 1  ON 70
udO_15 3.4259e-05 1 1  ON 71
udO_16 8.2842e-04 1 1  ON 72
udO_17 5.3238e-04 1 1  ON 73
udO_18 -8.4983e-05 1 1  ON 74
udO_19 5.9404e-04 1 1  ON 75
udO_20 -4.2996e-04 1 1  ON 76
udO_21 -6.4593e-05 1 1  ON 77
udO_22 -7.2033e-05 1 1  ON 78
udO_23 3.3734e-04 1 1  ON 79
udO_24 -4.5712e-05 1 1  ON 80
udO_25 1.2086e-05 1 1  ON 81
  </optVariables>
   Restore the number of walkers to 1, removing 0 walkers.
</opt>
</optimization-report>
  QMC Execution time = 4.9830e+00 secs 
  Reusing QMCFixedSampleLinearOptimize
 Using QMCCostFunction::QMCCostFunction

=========================================================
  Start QMCFixedSampleLinearOptimize
  File Root O.log.s010 append = no 
=========================================================
  Skip QMCDriver::putQMCInfo 
[...]
    time step          = 0.15
    reference energy   = -15.8612
    reference variance = 0.153014
====================================================
  Execution time = 3.0252e+00
</vmc>
<opt stage="setup">
  <log>
   Reading configurations from h5FileRoot O.log.s020
  QMCCostFunction is created with 1 threads.
  Using Nonlocal PP in Opt: NonLocalECP
   Number of samples loaded to each thread : 500 
  VMC Eavg = -1.5860e+01
  VMC Evar = 1.9759e-01
  Total weights = 5.1200e+05
  Execution time = 1.0550e+00
  </log>
</opt>
<opt stage="main" walkers="512000">
  <log>

*****************************************
Building overlap and Hamiltonian matrices
*****************************************

Among totally 82 optimized parameters, largest LM parameter change : 1.3413e-02 at parameter 20

******************************************************************************
Init Cost =  -1.5057e+01    New Cost =  -1.5057e+01  Delta Cost =  -5.2941e-05
******************************************************************************

The new set of parameters is valid. Updating the trial wave function!

*****************************************************************************
Applying the update for shift_i =   1.0000e-02     and shift_s =   7.8125e-03
*****************************************************************************
  Execution time = 4.9596e+00
  </log>
  <optVariables href="O.log.s020.opt.xml">
uu_0 2.0925e-01 1 1  ON 0
uu_1 1.0235e-01 1 1  ON 1
uu_2 3.4449e-02 1 1  ON 2
uu_3 -7.8311e-03 1 1  ON 3
uu_4 -3.9877e-02 1 1  ON 4
uu_5 -6.6200e-02 1 1  ON 5
uu_6 -8.1110e-02 1 1  ON 6
uu_7 -9.1127e-02 1 1  ON 7
uu_8 -9.1677e-02 1 1  ON 8
uu_9 -7.5569e-02 1 1  ON 9
ud_0 5.1261e-01 1 1  ON 10
ud_1 2.8543e-01 1 1  ON 11
ud_2 1.4437e-01 1 1  ON 12
ud_3 5.8626e-02 1 1  ON 13
ud_4 1.0201e-02 1 1  ON 14
ud_5 -2.0226e-02 1 1  ON 15
ud_6 -3.9388e-02 1 1  ON 16
ud_7 -5.8400e-02 1 1  ON 17
ud_8 -6.9254e-02 1 1  ON 18
ud_9 -6.3550e-02 1 1  ON 19
eO_0 -1.1208e+00 1 1  ON 20
eO_1 -1.0393e+00 1 1  ON 21
eO_2 -6.6722e-01 1 1  ON 22
eO_3 -1.2997e-01 1 1  ON 23
eO_4 3.0789e-01 1 1  ON 24
eO_5 4.7810e-01 1 1  ON 25
eO_6 5.2017e-01 1 1  ON 26
eO_7 5.4024e-01 1 1  ON 27
eO_8 4.8311e-01 1 1  ON 28
eO_9 3.4890e-01 1 1  ON 29
uuO_0 2.8780e-04 1 1  ON 30
uuO_1 2.2122e-04 1 1  ON 31
uuO_2 -3.8674e-04 1 1  ON 32
uuO_3 -5.7211e-04 1 1  ON 33
uuO_4 -3.5467e-04 1 1  ON 34
uuO_5 1.6779e-04 1 1  ON 35
uuO_6 -4.7150e-04 1 1  ON 36
uuO_7 8.6061e-05 1 1  ON 37
uuO_8 6.7323e-04 1 1  ON 38
uuO_9 2.6987e-04 1 1  ON 39
uuO_10 -6.8632e-04 1 1  ON 40
uuO_11 3.9273e-04 1 1  ON 41
uuO_12 -7.0112e-04 1 1  ON 42
uuO_13 8.0608e-04 1 1  ON 43
uuO_14 6.7266e-04 1 1  ON 44
uuO_15 2.7004e-06 1 1  ON 45
uuO_16 -4.8237e-04 1 1  ON 46
uuO_17 2.0325e-03 1 1  ON 47
uuO_18 -1.0528e-03 1 1  ON 48
uuO_19 6.9682e-04 1 1  ON 49
uuO_20 -3.0729e-04 1 1  ON 50
uuO_21 -1.4303e-04 1 1  ON 51
uuO_22 -5.0068e-05 1 1  ON 52
uuO_23 2.5021e-04 1 1  ON 53
uuO_24 3.2883e-05 1 1  ON 54
uuO_25 -9.1680e-06 1 1  ON 55
udO_0 -3.9083e-04 1 1  ON 56
udO_1 5.7294e-04 1 1  ON 57
udO_2 1.4776e-03 1 1  ON 58
udO_3 -1.0053e-04 1 1  ON 59
udO_4 -4.2416e-04 1 1  ON 60
udO_5 1.0129e-04 1 1  ON 61
udO_6 1.5707e-03 1 1  ON 62
udO_7 -1.6947e-04 1 1  ON 63
udO_8 1.8688e-03 1 1  ON 64
udO_9 -6.2276e-04 1 1  ON 65
udO_10 -6.8543e-05 1 1  ON 66
udO_11 -1.0138e-03 1 1  ON 67
udO_12 -8.1646e-04 1 1  ON 68
udO_13 2.9321e-04 1 1  ON 69
udO_14 5.5310e-04 1 1  ON 70
udO_15 3.8399e-05 1 1  ON 71
udO_16 9.5701e-04 1 1  ON 72
udO_17 3.7894e-04 1 1  ON 73
udO_18 3.7034e-04 1 1  ON 74
udO_19 5.1997e-04 1 1  ON 75
udO_20 -4.9864e-04 1 1  ON 76
udO_21 -1.5974e-04 1 1  ON 77
udO_22 -4.6115e-05 1 1  ON 78
udO_23 3.9595e-04 1 1  ON 79
udO_24 -2.2385e-05 1 1  ON 80
udO_25 3.5456e-06 1 1  ON 81
  </optVariables>
   Restore the number of walkers to 1, removing 0 walkers.
</opt>
</optimization-report>
  QMC Execution time = 4.9744e+00 secs 

=========================================================
  Start VMC
  File Root O.log.s021 append = no 
=========================================================
  Using the current 1 walkers.
  Total number of walkers: 1.0240e+03
  Total weight: 1.0240e+03
  Resetting Properties of the walkers 1 x 13

<vmc function="put">
  qmc_counter=0  my_counter=0
  time step      = 1.5000e-01
  blocks         = 200
  steps          = 1
  substeps       = 30
  current        = 0
  target samples = 4.0960e+03
  walkers/mpi    = 1

  stepsbetweensamples = 50
<parameter name="blocks" condition="int">200</parameter>
<parameter name="blocks_between_recompute" condition="int">0</parameter>
<parameter name="check_properties" condition="int">100</parameter>
<parameter name="checkproperties" condition="int">100</parameter>
<parameter name="current" condition="int">0</parameter>
<parameter name="dmcwalkersperthread" condition="real">4.0000e+00</parameter>
<parameter name="maxcpusecs" condition="real">3.6000e+05</parameter>
<parameter name="record_configs" condition="int">0</parameter>
<parameter name="record_walkers" condition="int">50</parameter>
<parameter name="recordconfigs" condition="int">0</parameter>
<parameter name="recordwalkers" condition="int">50</parameter>
<parameter name="rewind" condition="int">0</parameter>
<parameter name="samples" condition="real">4.0960e+03</parameter>
<parameter name="samplesperthread" condition="real">4.0000e+00</parameter>
<parameter name="steps" condition="int">1</parameter>
<parameter name="stepsbetweensamples" condition="int">50</parameter>
<parameter name="store_configs" condition="int">0</parameter>
<parameter name="storeconfigs" condition="int">0</parameter>
<parameter name="sub_steps" condition="int">30</parameter>
<parameter name="substeps" condition="int">30</parameter>
<parameter name="tau" condition="au">1.5000e-01</parameter>
<parameter name="time_step" condition="au">1.5000e-01</parameter>
<parameter name="timestep" condition="au">1.5000e-01</parameter>
<parameter name="use_drift" condition="string">no</parameter>
<parameter name="usedrift" condition="string">no</parameter>
<parameter name="walkers" condition="int">1</parameter>
<parameter name="warmup_steps" condition="int">100</parameter>
<parameter name="warmupsteps" condition="int">100</parameter>
  DumpConfig==false Nothing (configurations, state) will be saved.
  Walker Samples are dumped every 50 steps.
</vmc>
  EstimatorManagerBase::add replace LocalEnergy estimator.
  Cannot make clones again. Use existing 1 clones
  Initial partition of walkers 0 1 

  Using Particle by Particle moves
  Walker moves without drift
  Total Sample Size   =4096
  Walker distribution on root = 0 1 
  Using Locality Approximation
===== Memory Usage after the buffer registration =====
Available memory on node 0, free + buffers : 82394 MB
Memory footprint by rank 0 on node 0       : 136 MB
==================================================
  Anonymous Buffer size per walker : 2336 Bytes.
MEMORY increase 0 MB VMC::resetRun
====================================================
  SimpleFixedNodeBranch::finalize after a VMC block
    QMC counter        = 21
    time step          = 0.15
    reference energy   = -15.872
    reference variance = 0.134814
====================================================
  QMC Execution time = 2.8634e+00 secs 

=========================================================
  Start DMC
  File Root O.log.s022 append = no 
=========================================================
Using existing walkers 
  Resetting Properties of the walkers 1 x 13
  EstimatorManagerBase::add replace LocalEnergy estimator.
  Cannot make clones again. Use existing 1 clones
  Total number of walkers: 4.0960e+03
  Total weight: 4.0960e+03
  Creating WalkerController: target  number of walkers = 4096
  Using WalkerControlMPI for dynamic population control.
  START ALL OVER 
  WalkerControlBase parameters 
    maxCopy = 2
    Max Walkers per MPI rank 9
    Min Walkers per MPI rank 1
    Using non-blocking send/recv
  QMC counter      = 22
  time step        = 2.0000e-02
  effective time step = 2.0000e-02
  trial energy     = -1.5872e+01
  reference energy = -1.5872e+01
  Feedback = 1.0000e+00
  reference variance = 1.3481e-01
  target walkers = 4096
  branching cutoff scheme classic
  branch cutoff = 5.0000e+01 7.5000e+01
  Max and minimum walkers per node= 9 1
  QMC Status (BranchMode) = 0000001101
  Initial partition of walkers on a node: 0 4 
  Updates by particle-by-particle moves
  DMC moves are rejected when a node crossing is detected
  Using Non-local T-moves v0, M. Casula, PRB 74, 161102(R) (2006)
===== Memory Usage after the buffer registration =====
Available memory on node 0, free + buffers : 82393 MB
Memory footprint by rank 0 on node 0       : 136 MB
==================================================
SimpleFixedNodeBranch::checkParameters 
  Average Energy of a population  = -15.861
  Energy Variance = 0.174697

  Fluctuating population
  Persistent walkers are killed after 1 MC sweeps
  BranchInterval = 1
  Steps per block = 50
  Number of blocks = 70

  DMC Engine Initialization = 3.8068e-02 secs 

 Warmup is completed after 100

  TauEff     = 1.9357e-02
 TauEff/Tau = 9.6784e-01
  Etrial     = -1.5796e+01
 Running average of energy = -1.5872e+01
                  Variance = 2.2571e-01
branch cutoff = 1.0000e+01 1.5000e+01
====================================================
  SimpleFixedNodeBranch::finalize after a DMC block
    QMC counter                   = 22
    time step                     = 0.02
    effective time step           = 0.0193546
    trial energy                  = -15.8702
    reference energy              = -15.8722
    reference variance            = 0.22571
    target walkers                = 4096
    branch cutoff                 = 10 15
    Max and minimum walkers per node= 9 1
    Feedback                      = 1
    QMC Status (BranchMode)       = 0000001111
====================================================
  QMC Execution time = 4.3898e+01 secs 
  Reusing DMC
BRANCH resetRun
 SimpleFixedNodeBranch::resetRun detected changes in <parameter>'s 
 BranchMode : 0000001111 0000001111
  WalkerControlBase parameters 
    maxCopy = 2
    Max Walkers per MPI rank 9
    Min Walkers per MPI rank 1
    Using non-blocking send/recv
 iParam (old):                  0                 1                22              4096                 9                 1                 1                 0
 iParam (new):                100                 1                22              4096                 9                 1                 1                 0
 vParam (old):   2.0000000000e-02  1.9354617222e-02 -1.5870243377e+01 -1.5872198412e+01 -1.5864220894e+01  1.5000000000e+01  1.0000000000e+01  2.0000000000e-01  2.2571025537e-01 -5.3981338821e+04  3.4010000000e+03  1.0000000000e+00  1.0000000000e+01  1.0000000000e+00  1.0000000000e+00  1.0000000000e+00  1.0000000000e+00
 vParam (new):   1.0000000000e-02  1.9354617222e-02 -1.5870243377e+01 -1.5872198412e+01 -1.5864220894e+01  1.5000000000e+01  1.0000000000e+01  2.0000000000e-01  2.2571025537e-01 -5.3981338821e+04  3.4010000000e+03  1.0000000000e+00  1.0000000000e+01  1.0000000000e+00  1.0000000000e+00  1.0000000000e+00  1.0000000000e+00

 Using branching cutoff scheme classic
SimpleFixedNodeBranch::checkParameters 
  Average Energy of a population  = -15.8665
  Energy Variance = 0.227248

  Using Non-local T-moves v0, M. Casula, PRB 74, 161102(R) (2006)
===== Memory Usage after the buffer registration =====
Available memory on node 0, free + buffers : 82376 MB
Memory footprint by rank 0 on node 0       : 138 MB
==================================================

=========================================================
  Start DMC
  File Root O.log.s023 append = no 
=========================================================
Using existing walkers 
  Resetting Properties of the walkers 1 x 13
  EstimatorManagerBase::add replace LocalEnergy estimator.
  Cannot make clones again. Use existing 1 clones
SimpleFixedNodeBranch::checkParameters 
  Average Energy of a population  = -15.8643
  Energy Variance = 0.290163

  Fluctuating population
  Persistent walkers are killed after 1 MC sweeps
  BranchInterval = 1
  Steps per block = 100
  Number of blocks = 90

  DMC Engine Initialization = 3.7503242493e-04 secs 

 Warmup is completed after 100

  TauEff     = 9.8671400436e-03
 TauEff/Tau = 9.8671400436e-01
  Etrial     = -1.5770456638e+01
 Running average of energy = -1.5868161067e+01
                  Variance = 2.1078778676e-01
branch cutoff = 1.0000000000e+01 1.5000000000e+01
====================================================
  SimpleFixedNodeBranch::finalize after a DMC block
    QMC counter                   = 23
    time step                     = 0.01
    effective time step           = 0.00986466
    trial energy                  = -15.8589
    reference energy              = -15.8712
    reference variance            = 0.210788
    target walkers                = 4096
    branch cutoff                 = 10 15
    Max and minimum walkers per node= 9 1
    Feedback                      = 1
    QMC Status (BranchMode)       = 0000001111
====================================================
  QMC Execution time = 1.1225e+02 secs 
  Reusing DMC
BRANCH resetRun
 SimpleFixedNodeBranch::resetRun detected changes in <parameter>'s 
 BranchMode : 0000001111 0000001111
  WalkerControlBase parameters 
    maxCopy = 2
    Max Walkers per MPI rank 9
    Min Walkers per MPI rank 1
    Using non-blocking send/recv
 iParam (old):                  0                 1                23              4096                 9                 1                 1                 0
 iParam (new):                200                 1                23              4096                 9                 1                 1                 0
 vParam (old):   1.0000000000e-02  9.8646580686e-03 -1.5858868611e+01 -1.5871150760e+01 -1.5866625983e+01  1.5000000000e+01  1.0000000000e+01  2.0000000000e-01  2.1078778676e-01 -1.4126910839e+05  8.9010000000e+03  1.0000000000e+00  1.0000000000e+01  1.0000000000e+00  1.0000000000e+00  1.0000000000e+00  1.0000000000e+00
 vParam (new):   5.0000000000e-03  9.8646580686e-03 -1.5858868611e+01 -1.5871150760e+01 -1.5866625983e+01  1.5000000000e+01  1.0000000000e+01  2.0000000000e-01  2.1078778676e-01 -1.4126910839e+05  8.9010000000e+03  1.0000000000e+00  1.0000000000e+01  1.0000000000e+00  1.0000000000e+00  1.0000000000e+00  1.0000000000e+00

 Using branching cutoff scheme classic
SimpleFixedNodeBranch::checkParameters 
  Average Energy of a population  = -15.8661
  Energy Variance = 0.224881

  Using Non-local T-moves v0, M. Casula, PRB 74, 161102(R) (2006)
===== Memory Usage after the buffer registration =====
Available memory on node 0, free + buffers : 82364 MB
Memory footprint by rank 0 on node 0       : 140 MB
==================================================

=========================================================
  Start DMC
  File Root O.log.s024 append = no 
=========================================================
Using existing walkers 
  Resetting Properties of the walkers 1 x 13
  EstimatorManagerBase::add replace LocalEnergy estimator.
  Cannot make clones again. Use existing 1 clones
SimpleFixedNodeBranch::checkParameters 
  Average Energy of a population  = -15.8603
  Energy Variance = 0.195579

  Fluctuating population
  Persistent walkers are killed after 1 MC sweeps
  BranchInterval = 1
  Steps per block = 200
  Number of blocks = 110

  DMC Engine Initialization = 3.3409595490e-03 secs 

 Warmup is completed after 200

  TauEff     = 4.9730207799e-03
 TauEff/Tau = 9.9460415598e-01
  Etrial     = -1.5877367765e+01
 Running average of energy = -1.5869269374e+01
                  Variance = 2.1372219709e-01
branch cutoff = 1.0000000000e+01 1.5000000000e+01
====================================================
  SimpleFixedNodeBranch::finalize after a DMC block
    QMC counter                   = 24
    time step                     = 0.005
    effective time step           = 0.00497255
    trial energy                  = -15.8645
    reference energy              = -15.8702
    reference variance            = 0.213722
    target walkers                = 4096
    branch cutoff                 = 10 15
    Max and minimum walkers per node= 9 1
    Feedback                      = 1
    QMC Status (BranchMode)       = 0000001111
====================================================
  QMC Execution time = 2.7337e+02 secs 
  Reusing DMC
BRANCH resetRun
 SimpleFixedNodeBranch::resetRun detected changes in <parameter>'s 
 BranchMode : 0000001111 0000001111
  WalkerControlBase parameters 
    maxCopy = 2
    Max Walkers per MPI rank 9
    Min Walkers per MPI rank 1
    Using non-blocking send/recv
 iParam (old):                  0                 1                24              4096                 9                 1                 1                 0
 iParam (new):                400                 1                24              4096                 9                 1                 1                 0
 vParam (old):   5.0000000000e-03  4.9725544615e-03 -1.5864523476e+01 -1.5870154535e+01 -1.5861336856e+01  1.5000000000e+01  1.0000000000e+01  2.0000000000e-01  2.1372219709e-01 -3.4598523020e+05  2.1801000000e+04  1.0000000000e+00  1.0000000000e+01  1.0000000000e+00  1.0000000000e+00  1.0000000000e+00  1.0000000000e+00
 vParam (new):   2.5000000000e-03  4.9725544615e-03 -1.5864523476e+01 -1.5870154535e+01 -1.5861336856e+01  1.5000000000e+01  1.0000000000e+01  2.0000000000e-01  2.1372219709e-01 -3.4598523020e+05  2.1801000000e+04  1.0000000000e+00  1.0000000000e+01  1.0000000000e+00  1.0000000000e+00  1.0000000000e+00  1.0000000000e+00

 Using branching cutoff scheme classic
SimpleFixedNodeBranch::checkParameters 
  Average Energy of a population  = -15.8707
  Energy Variance = 0.211086

  Using Non-local T-moves v0, M. Casula, PRB 74, 161102(R) (2006)
===== Memory Usage after the buffer registration =====
Available memory on node 0, free + buffers : 82351 MB
Memory footprint by rank 0 on node 0       : 142 MB
==================================================

=========================================================
  Start DMC
  File Root O.log.s025 append = no 
=========================================================
Using existing walkers 
  Resetting Properties of the walkers 1 x 13
  EstimatorManagerBase::add replace LocalEnergy estimator.
  Cannot make clones again. Use existing 1 clones
SimpleFixedNodeBranch::checkParameters 
  Average Energy of a population  = -15.8695
  Energy Variance = 0.19172

  Fluctuating population
  Persistent walkers are killed after 1 MC sweeps
  BranchInterval = 1
  Steps per block = 400
  Number of blocks = 130

  DMC Engine Initialization = 8.7594985962e-04 secs 

 Warmup is completed after 400

  TauEff     = 2.4945274156e-03
 TauEff/Tau = 9.9781096625e-01
  Etrial     = -1.6065449929e+01
 Running average of energy = -1.5868744265e+01
                  Variance = 2.0600791148e-01
branch cutoff = 1.0000000000e+01 1.5000000000e+01
====================================================
  SimpleFixedNodeBranch::finalize after a DMC block
    QMC counter                   = 25
    time step                     = 0.0025
    effective time step           = 0.00249455
    trial energy                  = -15.8671
    reference energy              = -15.8696
    reference variance            = 0.206008
    target walkers                = 4096
    branch cutoff                 = 10 15
    Max and minimum walkers per node= 9 1
    Feedback                      = 1
    QMC Status (BranchMode)       = 0000001111
====================================================
  QMC Execution time = 6.4550e+02 secs 
  Total Execution time = 1.1776e+03 secs

=========================================================
  A new xml input file : O.log.s025.cont.xml
TACC:  Shutdown complete. Exiting. 
