TACC:  Starting up job 3912561 
TACC:  Starting parallel tasks... 
  Input file(s): Kr.log.qmc.in-wfj.xml 

=====================================================
                    QMCPACK 3.7.9

       (c) Copyright 2003-  QMCPACK developers

                    Please cite:
 J. Kim et al. J. Phys. Cond. Mat. 30 195901 (2018)
      https://doi.org/10.1088/1361-648X/aab9c3

  Git branch: develop
  Last git commit: 9a049a3fb3e0d7110d61a924a52203fd8296522a
  Last git commit date: Mon Jul 1 13:42:43 2019 -0500
  Last git commit subject: Merge pull request #1686 from ye-luo/rename-to-LCAOHDFParser
=====================================================
  Global options 

  Total number of MPI ranks = 1024
  Number of MPI groups      = 1
  MPI group ID              = 0
  Number of ranks in group  = 1024
  MPI ranks per node        = 64
  OMP 1st level threads     = 1
  OMP nested threading disabled or only 1 thread on the 2nd level

  Precision used in this calculation, see definitions in the manual:
  Base precision      = double
  Full precision      = double

  Structure-of-arrays (SoA) optimization enabled

  Input XML = Kr.log.qmc.in-wfj.xml

  Project = Kr.log
  date    = 2019-07-01 20:41:46 CDT
  host    = c415-124.stampede2.tacc.utexas.edu

 Random Number
 -------------
  Offset for the random number seeds based on time: 602

  Range of prime numbers to use as seeds over processors and threads = 4447-13759


 Particle Set 
 ------------
  Name: ion0
  All the species have the same mass 1
  Particle set size: 1

 Particle Set 
 ------------
  Name: e
  All the species have the same mass 1
  Particle set size: 8

 Wavefunction setup: 
 ------------------- 
  Name: psi0
  LCAO: SoaAtomicBasisSet<MultiQuintic,1>
Reading BasisSet from HDF5 file:Kr.log.h5
<input node="atomicBasisSet" name="gaussian" expandYlm="pyscf" angular="spherical" elementType="Kr" normalized="no" type="Numerical" expM="0" />
  AO BasisSet for Kr
   Spherical Harmonics contain (-1)^m factor
   Angular momentum m expanded as -l, ... ,l, with the exception of L=1 (1,-1,0)
   Grid is created by the input paremters in h5
    Using log grid ri = 1e-06 rf = 100 npts = 1001
   R(n,l,m,s) 0 0 0 0
   R(n,l,m,s) 1 0 0 0
   R(n,l,m,s) 2 1 0 0
   R(n,l,m,s) 3 1 0 0
   R(n,l,m,s) 4 2 0 0
Expanding Ylm as L=1 as (1,-1,0) and L>1 as -l,-l+1,...,l-1,l
   Adding 1 spherical orbitals
   Adding 1 spherical orbitals
   Adding 3 spherical orbitals
   Adding 3 spherical orbitals
   Adding 5 spherical orbitals
  Setting cutoff radius 10.9648

   Maximum Angular Momentum  = 2
   Number of Radial functors = 5
   Basis size                = 13

  Created SPOSet builder named 'LCAOBSet' of type molecularorbital
Reuse SPOSetBuilder "LCAOBSet" type MolecularOrbital
  Building SPOSet '' with '' basis set.
Reuse SPOSetBuilder "LCAOBSet" type MolecularOrbital
  Building SPOSet '' with '' basis set.
  Creating a determinant updet group=0 sposet=updet
  Reusing a SPO set updet
Using DiracDeterminant with DelayedUpdate engine
Using rank-1 Sherman-Morrison Fahy update

  Creating a determinant downdet group=1 sposet=downdet
  Reusing a SPO set downdet
Using DiracDeterminant with DelayedUpdate engine
Using rank-1 Sherman-Morrison Fahy update

  FermionWF = SlaterDet

   Jastrow
   -------
    Name: J2   Type: Two-Body   Function: Bspline

    Radial function for species: u - u
     Number of parameters: 10
     Cusp: -0.25
     Cutoff radius: 10

     Name                        Value Type Recompute Use Index
     ---- ---------------------------- ---- --------- --- -----
     uu_0                 3.873055e-01    1         1  ON     0
     uu_1                 1.922433e-01    1         1  ON     1
     uu_2                 6.712667e-02    1         1  ON     2
     uu_3                -1.868949e-02    1         1  ON     3
     uu_4                -7.904774e-02    1         1  ON     4
     uu_5                -1.184577e-01    1         1  ON     5
     uu_6                -1.410692e-01    1         1  ON     6
     uu_7                -1.452398e-01    1         1  ON     7
     uu_8                -1.225287e-01    1         1  ON     8
     uu_9                -6.273514e-02    1         1  ON     9

    Radial function for species: u - d
     Number of parameters: 10
     Cusp: -0.5
     Cutoff radius: 10

     Name                        Value Type Recompute Use Index
     ---- ---------------------------- ---- --------- --- -----
     ud_0                 6.172026e-01    1         1  ON     0
     ud_1                 2.845591e-01    1         1  ON     1
     ud_2                 1.062841e-01    1         1  ON     2
     ud_3                 4.573796e-03    1         1  ON     3
     ud_4                -7.087415e-02    1         1  ON     4
     ud_5                -1.292808e-01    1         1  ON     5
     ud_6                -1.707610e-01    1         1  ON     6
     ud_7                -1.915423e-01    1         1  ON     7
     ud_8                -1.840385e-01    1         1  ON     8
     ud_9                -1.377322e-01    1         1  ON     9


   Jastrow
   -------
    Name: J1   Type: One-Body   Function: Bspline

    Radial function for element: Kr
     Number of parameters: 10
     Cusp: 0
     Cutoff radius: 10

      Name                        Value Type Recompute Use Index
     ----- ---------------------------- ---- --------- --- -----
     eKr_0                -1.147101e+00    1         1  ON     0
     eKr_1                -9.705717e-01    1         1  ON     1
     eKr_2                -5.399159e-01    1         1  ON     2
     eKr_3                -7.262982e-02    1         1  ON     3
     eKr_4                 3.044107e-01    1         1  ON     4
     eKr_5                 5.923655e-01    1         1  ON     5
     eKr_6                 7.531104e-01    1         1  ON     6
     eKr_7                 7.476383e-01    1         1  ON     7
     eKr_8                 3.392861e-01    1         1  ON     8
     eKr_9                 1.096748e-02    1         1  ON     9


   Jastrow
   -------
    Name: J3   Type: eeI   Function: polynomial

     Ion: Kr   electron-electron: u - u
      Number of parameters for e-e: 3, for e-I: 3
      Cutoff radius: 10

Expected 26 parameters, but found 0 in PolynomialFunctor3D.
         Name                        Value Type Recompute Use Index
      ------- ---------------------------- ---- --------- --- -----
       uuKr_0                 0.000000e+00    1         1  ON     0
       uuKr_1                 0.000000e+00    1         1  ON     1
       uuKr_2                 0.000000e+00    1         1  ON     2
       uuKr_3                 0.000000e+00    1         1  ON     3
       uuKr_4                 0.000000e+00    1         1  ON     4
       uuKr_5                 0.000000e+00    1         1  ON     5
       uuKr_6                 0.000000e+00    1         1  ON     6
       uuKr_7                 0.000000e+00    1         1  ON     7
       uuKr_8                 0.000000e+00    1         1  ON     8
       uuKr_9                 0.000000e+00    1         1  ON     9
      uuKr_10                 0.000000e+00    1         1  ON    10
      uuKr_11                 0.000000e+00    1         1  ON    11
      uuKr_12                 0.000000e+00    1         1  ON    12
      uuKr_13                 0.000000e+00    1         1  ON    13
      uuKr_14                 0.000000e+00    1         1  ON    14
      uuKr_15                 0.000000e+00    1         1  ON    15
      uuKr_16                 0.000000e+00    1         1  ON    16
      uuKr_17                 0.000000e+00    1         1  ON    17
      uuKr_18                 0.000000e+00    1         1  ON    18
      uuKr_19                 0.000000e+00    1         1  ON    19
      uuKr_20                 0.000000e+00    1         1  ON    20
      uuKr_21                 0.000000e+00    1         1  ON    21
      uuKr_22                 0.000000e+00    1         1  ON    22
      uuKr_23                 0.000000e+00    1         1  ON    23
      uuKr_24                 0.000000e+00    1         1  ON    24
      uuKr_25                 0.000000e+00    1         1  ON    25

     Ion: Kr   electron-electron: u - d
      Number of parameters for e-e: 3, for e-I: 3
      Cutoff radius: 10

Expected 26 parameters, but found 0 in PolynomialFunctor3D.
         Name                        Value Type Recompute Use Index
      ------- ---------------------------- ---- --------- --- -----
       udKr_0                 0.000000e+00    1         1  ON     0
       udKr_1                 0.000000e+00    1         1  ON     1
       udKr_2                 0.000000e+00    1         1  ON     2
       udKr_3                 0.000000e+00    1         1  ON     3
       udKr_4                 0.000000e+00    1         1  ON     4
       udKr_5                 0.000000e+00    1         1  ON     5
       udKr_6                 0.000000e+00    1         1  ON     6
       udKr_7                 0.000000e+00    1         1  ON     7
       udKr_8                 0.000000e+00    1         1  ON     8
       udKr_9                 0.000000e+00    1         1  ON     9
      udKr_10                 0.000000e+00    1         1  ON    10
      udKr_11                 0.000000e+00    1         1  ON    11
      udKr_12                 0.000000e+00    1         1  ON    12
      udKr_13                 0.000000e+00    1         1  ON    13
      udKr_14                 0.000000e+00    1         1  ON    14
      udKr_15                 0.000000e+00    1         1  ON    15
      udKr_16                 0.000000e+00    1         1  ON    16
      udKr_17                 0.000000e+00    1         1  ON    17
      udKr_18                 0.000000e+00    1         1  ON    18
      udKr_19                 0.000000e+00    1         1  ON    19
      udKr_20                 0.000000e+00    1         1  ON    20
      udKr_21                 0.000000e+00    1         1  ON    21
      udKr_22                 0.000000e+00    1         1  ON    22
      udKr_23                 0.000000e+00    1         1  ON    23
      udKr_24                 0.000000e+00    1         1  ON    24
      udKr_25                 0.000000e+00    1         1  ON    25

  QMCHamiltonian::addOperator Kinetic to H, physical Hamiltonian 
  QMCHamiltonian::addOperator ElecElec to H, physical Hamiltonian 
QMCHamiltonian::addOperatorType added type coulomb named ElecElec
  CoulombAA for ion0 is not created.  Number of particles == 1 and nonPeriodic

  ECPotential builder for pseudopotential 

  Adding pseudopotential for Kr
   Linear grid  ri=0 rf=10 npts = 10001
    ECPComponentBuilder::buildSemiLocalAndLocal 
    Assuming Hartree unit
   Number of angular momentum channels 4
   Maximum angular momentum channel 3
   Creating a Linear Grid Rmax=2.895
  Using global grid with delta = 0.001
   Making L=3 a local potential with a radial cutoff of 9.999
    Non-local pseudopotential parameters
    Maximum angular mementum = 2
    Number of non-local channels = 3
       l(0)=0
       l(1)=1
       l(2)=2
    Cutoff radius = 2.895
    Spherical grids and weights: 
                        1                 0                 0       0.08333333333
                       -1   1.224646799e-16                 0       0.08333333333
             0.4472135955       0.894427191                 0       0.08333333333
            -0.4472135955      0.7236067977      0.5257311121       0.08333333333
             0.4472135955      0.2763932023      0.8506508084       0.08333333333
            -0.4472135955     -0.2763932023      0.8506508084       0.08333333333
             0.4472135955     -0.7236067977      0.5257311121       0.08333333333
            -0.4472135955      -0.894427191   1.095357397e-16       0.08333333333
             0.4472135955     -0.7236067977     -0.5257311121       0.08333333333
            -0.4472135955     -0.2763932023     -0.8506508084       0.08333333333
             0.4472135955      0.2763932023     -0.8506508084       0.08333333333
            -0.4472135955      0.7236067977     -0.5257311121       0.08333333333
    Maximum cutoff radius 2.895
  QMCHamiltonian::addOperator LocalECP to H, physical Hamiltonian 

  Using NonLocalECP potential 
    Maximum grid on a sphere for NonLocalECPotential: 12
  QMCHamiltonian::addOperator NonLocalECP to H, physical Hamiltonian 
QMCHamiltonian::addOperatorType added type pseudo named PseudoPot

  QMCHamiltonian::add2WalkerProperty added
    4 to P::PropertyList 
    0 to P::Collectables 
    starting Index of the observables in P::PropertyList = 9
ParticleSetPool::randomize 
<init source="ion0" target="e">
</init>
  Initialization Execution time = 0.4953 secs
=========================================================
 Summary of QMC systems 
=========================================================
ParticleSetPool has: 

  ParticleSet 'e' contains 8 particles :  u(4) d(4)

    u  1.7848474826e+00  2.6295714229e+00 -7.2106881363e-01
    u  1.1375079285e+00  2.9036300635e-01 -4.8522273456e-01
    u  2.1245029082e+00  9.9317787709e-01  1.6942200385e+00
    u  2.2747061055e-01 -1.0805212191e+00  1.6685836046e+00
    d -4.5698982540e-01  5.7303716436e-01 -3.5041329546e-01
    d  3.5934130678e-01  5.4527488300e-01  1.2044267319e+00
    d  2.3849542302e+00 -1.6870071152e+00  3.6216356259e-01
    d  3.9926927666e-01 -1.3213297334e+00  2.1178864264e-01

  Distance table for dissimilar particles (A-B):
    source: ion0  target: e
    Using structure-of-arrays (SoA) data layout
    Distance computations use open boundary conditions in 3D.

  Distance table for similar particles (A-A):
    source/target: e
    Using structure-of-arrays (SoA) data layout
    Distance computations use open boundary conditions in 3D.


  ParticleSet 'ion0' contains 1 particles :  Kr(1)

    Kr  0.0000000000e+00  0.0000000000e+00  0.0000000000e+00


  Hamiltonian h0
  Kinetic         Kinetic energy
  ElecElec        CoulombAB source=e

  LocalECP        LocalECPotential: ion0
  NonLocalECP     NonLocalECPotential: ion0


=========================================================
  Start VMC
  File Root Kr.log.s000 append = no 
=========================================================
  Adding 1 walkers to 0 existing sets
  Total number of walkers: 1.0240000000e+03
  Total weight: 1.0240000000e+03
  Resetting Properties of the walkers 1 x 13

<vmc function="put">
  qmc_counter=0  my_counter=0
  time step      = 1.5000000000e-01
  blocks         = 200
  steps          = 1
  substeps       = 5
  current        = 0
  target samples = 1.0240000000e+03
  walkers/mpi    = 1

  stepsbetweensamples = 200
<parameter name="blocks" condition="int">200</parameter>
<parameter name="blocks_between_recompute" condition="int">0</parameter>
<parameter name="check_properties" condition="int">100</parameter>
<parameter name="checkproperties" condition="int">100</parameter>
<parameter name="current" condition="int">0</parameter>
<parameter name="dmcwalkersperthread" condition="real">1.0000000000e+00</parameter>
<parameter name="maxcpusecs" condition="real">3.6000000000e+05</parameter>
<parameter name="record_configs" condition="int">0</parameter>
<parameter name="record_walkers" condition="int">200</parameter>
<parameter name="recordconfigs" condition="int">0</parameter>
<parameter name="recordwalkers" condition="int">200</parameter>
<parameter name="rewind" condition="int">0</parameter>
<parameter name="samples" condition="real">1.0240000000e+03</parameter>
<parameter name="samplesperthread" condition="real">1.0000000000e+00</parameter>
<parameter name="steps" condition="int">1</parameter>
<parameter name="stepsbetweensamples" condition="int">200</parameter>
<parameter name="store_configs" condition="int">0</parameter>
<parameter name="storeconfigs" condition="int">0</parameter>
<parameter name="sub_steps" condition="int">5</parameter>
<parameter name="substeps" condition="int">5</parameter>
<parameter name="tau" condition="au">1.5000000000e-01</parameter>
<parameter name="time_step" condition="au">1.5000000000e-01</parameter>
<parameter name="timestep" condition="au">1.5000000000e-01</parameter>
<parameter name="use_drift" condition="string">no</parameter>
<parameter name="usedrift" condition="string">no</parameter>
<parameter name="walkers" condition="int">1</parameter>
<parameter name="warmup_steps" condition="int">100</parameter>
<parameter name="warmupsteps" condition="int">100</parameter>
  DumpConfig==false Nothing (configurations, state) will be saved.
  Walker Samples are dumped every 200 steps.
</vmc>
  Set drift_modifier UNR parameter a = 1.0000000000e+00
  Initial partition of walkers 0 1 

  Using Particle by Particle moves
  Walker moves without drift
  Total Sample Size   =1024
  Walker distribution on root = 0 1 
  Using Locality Approximation
===== Memory Usage after the buffer registration =====
Available memory on node 0, free + buffers : 53314 MB
Memory footprint by rank 0 on node 0       : 571 MB
==================================================
  Anonymous Buffer size per walker : 2912 Bytes.
MEMORY increase 0 MB VMC::resetRun
====================================================
  SimpleFixedNodeBranch::finalize after a VMC block
    QMC counter        = 0
    time step          = 0.15
    reference energy   = -18.4398
    reference variance = 0.125776
====================================================
  QMC Execution time = 2.4087e+00 secs
Loop execution max-interations = 20

=========================================================
  Start QMCFixedSampleLinearOptimize
  File Root Kr.log.s001 append = no 
=========================================================
  Skip QMCDriver::putQMCInfo 
  Resetting Properties of the walkers 1 x 13

=========================================================
  Start VMC
  File Root Kr.log.s001 append = no 
=========================================================
  Using the current 1 walkers.
  Total number of walkers: 1.0240e+03
  Total weight: 1.0240e+03
  Resetting Properties of the walkers 1 x 13

<vmc function="put">
  qmc_counter=0  my_counter=0
  time step      = 1.5000e-01
  blocks         = 500
  steps          = 1
  substeps       = 5
  current        = 0
  target samples = 5.1200e+05
  walkers/mpi    = 1

  stepsbetweensamples = 1
<parameter name="blocks" condition="int">500</parameter>
<parameter name="blocks_between_recompute" condition="int">0</parameter>
<parameter name="check_properties" condition="int">100</parameter>
<parameter name="checkproperties" condition="int">100</parameter>
<parameter name="current" condition="int">0</parameter>
<parameter name="dmcwalkersperthread" condition="real">5.0000e+02</parameter>
<parameter name="maxcpusecs" condition="real">3.6000e+05</parameter>
<parameter name="record_configs" condition="int">0</parameter>
<parameter name="record_walkers" condition="int">1</parameter>
<parameter name="recordconfigs" condition="int">0</parameter>
<parameter name="recordwalkers" condition="int">1</parameter>
<parameter name="rewind" condition="int">0</parameter>
<parameter name="samples" condition="real">5.1200e+05</parameter>
<parameter name="samplesperthread" condition="real">5.0000e+02</parameter>
<parameter name="steps" condition="int">1</parameter>
<parameter name="stepsbetweensamples" condition="int">1</parameter>
<parameter name="store_configs" condition="int">0</parameter>
<parameter name="storeconfigs" condition="int">0</parameter>
<parameter name="sub_steps" condition="int">5</parameter>
<parameter name="substeps" condition="int">5</parameter>
<parameter name="tau" condition="au">1.5000e-01</parameter>
<parameter name="time_step" condition="au">1.5000e-01</parameter>
<parameter name="timestep" condition="au">1.5000e-01</parameter>
<parameter name="use_drift" condition="string">no</parameter>
<parameter name="usedrift" condition="string">no</parameter>
<parameter name="walkers" condition="int">1</parameter>
<parameter name="warmup_steps" condition="int">0</parameter>
<parameter name="warmupsteps" condition="int">0</parameter>
  DumpConfig==false Nothing (configurations, state) will be saved.
  Walker Samples are dumped every 1 steps.
</vmc>
    Restarting, cummulative properties:
      energy     = -1.8440e+01
      variance   = 0.0000e+00
      r2accepted = 1.0000e-10
      r2proposed = 1.0000e-10
  Set drift_modifier UNR parameter a = 1.0000e+00
 Using QMCCostFunction::QMCCostFunction
  Set drift_modifier UNR parameter a = 1.0000e+00
  EstimatorManagerBase::add replace LocalEnergy estimator.
<optimization-report>
<vmc stage="main" blocks="500">
  Cannot make clones again. Use existing 1 clones
  Initial partition of walkers 0 1 

  Using Particle by Particle moves
  Walker moves without drift
  Total Sample Size   =512000
  Walker distribution on root = 0 1 
  Using Locality Approximation
===== Memory Usage after the buffer registration =====
Available memory on node 0, free + buffers : 53299 MB
Memory footprint by rank 0 on node 0       : 571 MB
==================================================
  Anonymous Buffer size per walker : 2912 Bytes.
MEMORY increase 0 MB VMC::resetRun
====================================================
  SimpleFixedNodeBranch::finalize after a VMC block
    QMC counter        = 1
    time step          = 0.15
    reference energy   = -18.423
    reference variance = 0.170005
====================================================
  Execution time = 4.4252e+00
</vmc>
<opt stage="setup">
  <log>
   Reading configurations from h5FileRoot Kr.log.s001
  QMCCostFunction is created with 1 threads.
  Using Nonlocal PP in Opt: NonLocalECP
   Number of samples loaded to each thread : 500 
  VMC Eavg = -1.8455e+01
  VMC Evar = 1.2679e-01
  Total weights = 5.1200e+05
  Execution time = 1.7688e+00
  </log>
</opt>
<opt stage="main" walkers="512000">
  <log>

*****************************************
Building overlap and Hamiltonian matrices
*****************************************

Among totally 82 optimized parameters, largest LM parameter change : 5.9343e-02 at parameter 24

******************************************************************************
Init Cost =  -1.7526e+01    New Cost =  -1.7534e+01  Delta Cost =  -8.3950e-03
******************************************************************************

The new set of parameters is valid. Updating the trial wave function!

*****************************************************************************
Applying the update for shift_i =   1.0000e-02     and shift_s =   2.5000e-01
*****************************************************************************
  Execution time = 7.7719e+00
  </log>
  <optVariables href="Kr.log.s001.opt.xml">
   uu_0                 3.708127e-01 1 1  ON 0
   uu_1                 1.869908e-01 1 1  ON 1
   uu_2                 6.862291e-02 1 1  ON 2
   uu_3                -1.444061e-02 1 1  ON 3
   uu_4                -6.971024e-02 1 1  ON 4
   uu_5                -1.136633e-01 1 1  ON 5
   uu_6                -1.403418e-01 1 1  ON 6
   uu_7                -1.453209e-01 1 1  ON 7
   uu_8                -1.234856e-01 1 1  ON 8
   uu_9                -6.300553e-02 1 1  ON 9
   ud_0                 6.416164e-01 1 1  ON 10
   ud_1                 2.936533e-01 1 1  ON 11
   ud_2                 9.691751e-02 1 1  ON 12
   ud_3                -1.559616e-02 1 1  ON 13
   ud_4                -7.422704e-02 1 1  ON 14
   ud_5                -1.201746e-01 1 1  ON 15
   ud_6                -1.576835e-01 1 1  ON 16
   ud_7                -1.914775e-01 1 1  ON 17
   ud_8                -1.913562e-01 1 1  ON 18
   ud_9                -1.422467e-01 1 1  ON 19
  eKr_0                -1.148961e+00 1 1  ON 20
  eKr_1                -9.855447e-01 1 1  ON 21
  eKr_2                -5.824983e-01 1 1  ON 22
  eKr_3                -6.847008e-02 1 1  ON 23
  eKr_4                 3.637542e-01 1 1  ON 24
  eKr_5                 5.685679e-01 1 1  ON 25
  eKr_6                 7.482831e-01 1 1  ON 26
  eKr_7                 7.524556e-01 1 1  ON 27
  eKr_8                 3.558530e-01 1 1  ON 28
  eKr_9                 1.493233e-02 1 1  ON 29
 uuKr_0                -2.922069e-05 1 1  ON 30
 uuKr_1                 1.779297e-05 1 1  ON 31
 uuKr_2                 2.371205e-05 1 1  ON 32
 uuKr_3                 3.927864e-05 1 1  ON 33
 uuKr_4                 5.137393e-06 1 1  ON 34
 uuKr_5                -1.827486e-06 1 1  ON 35
 uuKr_6                 7.673888e-05 1 1  ON 36
 uuKr_7                 8.221215e-06 1 1  ON 37
 uuKr_8                -2.952733e-05 1 1  ON 38
 uuKr_9                -3.272420e-05 1 1  ON 39
uuKr_10                 2.222222e-05 1 1  ON 40
uuKr_11                -4.570274e-06 1 1  ON 41
uuKr_12                 1.316423e-05 1 1  ON 42
uuKr_13                -6.389667e-05 1 1  ON 43
uuKr_14                -1.576297e-05 1 1  ON 44
uuKr_15                 2.584171e-07 1 1  ON 45
uuKr_16                 6.987322e-05 1 1  ON 46
uuKr_17                -8.833459e-05 1 1  ON 47
uuKr_18                 1.667380e-05 1 1  ON 48
uuKr_19                -6.174004e-06 1 1  ON 49
uuKr_20                 1.563128e-05 1 1  ON 50
uuKr_21                 1.823865e-06 1 1  ON 51
uuKr_22                 1.114473e-07 1 1  ON 52
uuKr_23                -4.553342e-06 1 1  ON 53
uuKr_24                -1.049306e-07 1 1  ON 54
uuKr_25                 2.805484e-08 1 1  ON 55
 udKr_0                -3.789839e-05 1 1  ON 56
 udKr_1                 5.629273e-05 1 1  ON 57
 udKr_2                 6.186574e-05 1 1  ON 58
 udKr_3                 4.676998e-05 1 1  ON 59
 udKr_4                 1.095923e-06 1 1  ON 60
 udKr_5                -4.457390e-06 1 1  ON 61
 udKr_6                 1.787904e-04 1 1  ON 62
 udKr_7                -4.477274e-06 1 1  ON 63
 udKr_8                -5.890073e-06 1 1  ON 64
 udKr_9                -1.105341e-04 1 1  ON 65
udKr_10                 2.527158e-05 1 1  ON 66
udKr_11                -2.086557e-05 1 1  ON 67
udKr_12                 9.057211e-06 1 1  ON 68
udKr_13                -4.859939e-05 1 1  ON 69
udKr_14                -1.320604e-05 1 1  ON 70
udKr_15                 3.437644e-07 1 1  ON 71
udKr_16                 1.585092e-04 1 1  ON 72
udKr_17                -8.938125e-05 1 1  ON 73
udKr_18                 1.721921e-05 1 1  ON 74
udKr_19                -4.650555e-06 1 1  ON 75
udKr_20                -7.829280e-06 1 1  ON 76
udKr_21                 3.478798e-06 1 1  ON 77
udKr_22                -1.861152e-07 1 1  ON 78
udKr_23                 2.293807e-06 1 1  ON 79
udKr_24                -9.955158e-07 1 1  ON 80
udKr_25                 1.413909e-07 1 1  ON 81
  </optVariables>
   Restore the number of walkers to 1, removing 0 walkers.
</opt>
</optimization-report>
  QMC Execution time = 7.785 secs
  Reusing QMCFixedSampleLinearOptimize
 Using QMCCostFunction::QMCCostFunction

=========================================================
  Start QMCFixedSampleLinearOptimize
  File Root Kr.log.s002 append = no 
=========================================================
  Skip QMCDriver::putQMCInfo 
  Resetting Properties of the walkers 1 x 13

=========================================================
  Start VMC
  File Root Kr.log.s002 append = no 
=========================================================
Using existing walkers 
  Resetting Properties of the walkers 1 x 13

<vmc function="put">
  qmc_counter=1  my_counter=1
  time step      = 1.5000e-01
  blocks         = 500
  steps          = 1
  substeps       = 5
  current        = 0
  target samples = 5.1200e+05
  walkers/mpi    = 1

  stepsbetweensamples = 1
<parameter name="blocks" condition="int">500</parameter>
<parameter name="blocks_between_recompute" condition="int">0</parameter>
<parameter name="check_properties" condition="int">100</parameter>
<parameter name="checkproperties" condition="int">100</parameter>
<parameter name="current" condition="int">0</parameter>
<parameter name="dmcwalkersperthread" condition="real">5.0000e+02</parameter>
<parameter name="maxcpusecs" condition="real">3.6000e+05</parameter>
<parameter name="record_configs" condition="int">0</parameter>
<parameter name="record_walkers" condition="int">1</parameter>
<parameter name="recordconfigs" condition="int">0</parameter>
<parameter name="recordwalkers" condition="int">1</parameter>
<parameter name="rewind" condition="int">0</parameter>
<parameter name="samples" condition="real">5.1200e+05</parameter>
<parameter name="samplesperthread" condition="real">5.0000e+02</parameter>
<parameter name="steps" condition="int">1</parameter>
<parameter name="stepsbetweensamples" condition="int">1</parameter>
<parameter name="store_configs" condition="int">0</parameter>
<parameter name="storeconfigs" condition="int">0</parameter>
<parameter name="sub_steps" condition="int">5</parameter>
<parameter name="substeps" condition="int">5</parameter>
<parameter name="tau" condition="au">1.5000e-01</parameter>
<parameter name="time_step" condition="au">1.5000e-01</parameter>
<parameter name="timestep" condition="au">1.5000e-01</parameter>
<parameter name="use_drift" condition="string">no</parameter>
<parameter name="usedrift" condition="string">no</parameter>
<parameter name="walkers" condition="int">1</parameter>
<parameter name="warmup_steps" condition="int">0</parameter>
<parameter name="warmupsteps" condition="int">0</parameter>
  DumpConfig==false Nothing (configurations, state) will be saved.
  Walker Samples are dumped every 1 steps.
</vmc>
  Set drift_modifier UNR parameter a = 1.0000e+00
  EstimatorManagerBase::add replace LocalEnergy estimator.
  Set drift_modifier UNR parameter a = 1.0000e+00
  EstimatorManagerBase::add replace LocalEnergy estimator.
<optimization-report>
<vmc stage="main" blocks="500">
  Cannot make clones again. Use existing 1 clones
  Initial partition of walkers 0 1 
  Using Particle by Particle moves
  Walker moves without drift
  Total Sample Size   =512000
  Walker distribution on root = 0 1 
  Using Locality Approximation
===== Memory Usage after the buffer registration =====
Available memory on node 0, free + buffers : 52589 MB
Memory footprint by rank 0 on node 0       : 586 MB
==================================================
====================================================
  SimpleFixedNodeBranch::finalize after a VMC block
    QMC counter        = 2
    time step          = 0.15
    reference energy   = -18.4792
    reference variance = 0.0721337
====================================================
  Execution time = 4.4398e+00
</vmc>
<opt stage="setup">
  <log>
   Reading configurations from h5FileRoot Kr.log.s002
  QMCCostFunction is created with 1 threads.
  Using Nonlocal PP in Opt: NonLocalECP
   Number of samples loaded to each thread : 500 
  VMC Eavg = -1.8461e+01
  VMC Evar = 7.1785e-02
  Total weights = 5.1200e+05
  Execution time = 1.7738e+00
  </log>
</opt>
<opt stage="main" walkers="512000">
  <log>

*****************************************
Building overlap and Hamiltonian matrices
*****************************************

Among totally 82 optimized parameters, largest LM parameter change : 4.6521e-02 at parameter 24

******************************************************************************
Init Cost =  -1.7535e+01    New Cost =  -1.7535e+01  Delta Cost =  -2.8156e-04
******************************************************************************

The new set of parameters is valid. Updating the trial wave function!

*****************************************************************************
Applying the update for shift_i =   1.0000e-02     and shift_s =   6.2500e-02
*****************************************************************************
  Execution time = 7.7602e+00
  </log>
  <optVariables href="Kr.log.s002.opt.xml">
   uu_0                 3.610615e-01 1 1  ON 0
   uu_1                 1.813486e-01 1 1  ON 1
   uu_2                 6.763294e-02 1 1  ON 2
   uu_3                -1.095843e-02 1 1  ON 3
   uu_4                -6.256323e-02 1 1  ON 4
   uu_5                -1.073519e-01 1 1  ON 5
   uu_6                -1.357359e-01 1 1  ON 6
   uu_7                -1.437696e-01 1 1  ON 7
   uu_8                -1.259855e-01 1 1  ON 8
   uu_9                -6.565114e-02 1 1  ON 9
   ud_0                 6.532012e-01 1 1  ON 10
   ud_1                 2.995993e-01 1 1  ON 11
   ud_2                 9.533095e-02 1 1  ON 12
   ud_3                -2.040372e-02 1 1  ON 13
   ud_4                -7.436294e-02 1 1  ON 14
   ud_5                -1.145089e-01 1 1  ON 15
   ud_6                -1.492331e-01 1 1  ON 16
   ud_7                -1.882946e-01 1 1  ON 17
   ud_8                -1.953685e-01 1 1  ON 18
   ud_9                -1.512308e-01 1 1  ON 19
  eKr_0                -1.148719e+00 1 1  ON 20
  eKr_1                -1.010302e+00 1 1  ON 21
  eKr_2                -6.127176e-01 1 1  ON 22
  eKr_3                -6.318616e-02 1 1  ON 23
  eKr_4                 4.102747e-01 1 1  ON 24
  eKr_5                 5.546724e-01 1 1  ON 25
  eKr_6                 7.446125e-01 1 1  ON 26
  eKr_7                 7.578960e-01 1 1  ON 27
  eKr_8                 3.698251e-01 1 1  ON 28
  eKr_9                 1.687056e-02 1 1  ON 29
 uuKr_0                -3.380758e-05 1 1  ON 30
 uuKr_1                 2.524899e-05 1 1  ON 31
 uuKr_2                 2.952420e-05 1 1  ON 32
 uuKr_3                 4.466389e-05 1 1  ON 33
 uuKr_4                 5.175722e-06 1 1  ON 34
 uuKr_5                -1.972175e-06 1 1  ON 35
 uuKr_6                 9.776386e-05 1 1  ON 36
 uuKr_7                 9.951746e-06 1 1  ON 37
 uuKr_8                -3.323755e-05 1 1  ON 38
 uuKr_9                -4.627359e-05 1 1  ON 39
uuKr_10                 2.459415e-05 1 1  ON 40
uuKr_11                -5.879856e-06 1 1  ON 41
uuKr_12                 1.506787e-05 1 1  ON 42
uuKr_13                -7.188375e-05 1 1  ON 43
uuKr_14                -1.811294e-05 1 1  ON 44
uuKr_15                 2.874959e-07 1 1  ON 45
uuKr_16                 9.023353e-05 1 1  ON 46
uuKr_17                -1.024059e-04 1 1  ON 47
uuKr_18                 1.927606e-05 1 1  ON 48
uuKr_19                -7.100271e-06 1 1  ON 49
uuKr_20                 1.576188e-05 1 1  ON 50
uuKr_21                 2.147123e-06 1 1  ON 51
uuKr_22                 1.353977e-07 1 1  ON 52
uuKr_23                -4.590002e-06 1 1  ON 53
uuKr_24                -1.617185e-07 1 1  ON 54
uuKr_25                 3.151041e-08 1 1  ON 55
 udKr_0                -4.878659e-05 1 1  ON 56
 udKr_1                 6.097285e-05 1 1  ON 57
 udKr_2                 7.551676e-05 1 1  ON 58
 udKr_3                 6.084993e-05 1 1  ON 59
 udKr_4                 1.563314e-06 1 1  ON 60
 udKr_5                -4.489790e-06 1 1  ON 61
 udKr_6                 2.074474e-04 1 1  ON 62
 udKr_7                 5.162062e-06 1 1  ON 63
 udKr_8                -8.106417e-06 1 1  ON 64
 udKr_9                -1.265384e-04 1 1  ON 65
udKr_10                 3.337203e-05 1 1  ON 66
udKr_11                -3.019870e-05 1 1  ON 67
udKr_12                 1.158074e-05 1 1  ON 68
udKr_13                -6.612450e-05 1 1  ON 69
udKr_14                -1.618712e-05 1 1  ON 70
udKr_15                 3.768438e-07 1 1  ON 71
udKr_16                 1.891208e-04 1 1  ON 72
udKr_17                -1.159625e-04 1 1  ON 73
udKr_18                 2.553986e-05 1 1  ON 74
udKr_19                -6.188480e-06 1 1  ON 75
udKr_20                -5.862020e-06 1 1  ON 76
udKr_21                 3.629438e-06 1 1  ON 77
udKr_22                -1.410322e-07 1 1  ON 78
udKr_23                 1.589934e-06 1 1  ON 79
udKr_24                -1.048064e-06 1 1  ON 80
udKr_25                 1.486842e-07 1 1  ON 81
  </optVariables>
   Restore the number of walkers to 1, removing 0 walkers.
</opt>
</optimization-report>
  QMC Execution time = 7.772 secs
  Reusing QMCFixedSampleLinearOptimize
 Using QMCCostFunction::QMCCostFunction

=========================================================
  Start QMCFixedSampleLinearOptimize
  File Root Kr.log.s003 append = no 
=========================================================
  Skip QMCDriver::putQMCInfo 
  Resetting Properties of the walkers 1 x 13

=========================================================
  Start VMC
  File Root Kr.log.s003 append = no 
=========================================================
Using existing walkers 
  Resetting Properties of the walkers 1 x 13

<vmc function="put">
  qmc_counter=2  my_counter=2
  time step      = 1.5000e-01
  blocks         = 500
  steps          = 1
  substeps       = 5
  current        = 0
  target samples = 5.1200e+05
  walkers/mpi    = 1

  stepsbetweensamples = 1
<parameter name="blocks" condition="int">500</parameter>
<parameter name="blocks_between_recompute" condition="int">0</parameter>
<parameter name="check_properties" condition="int">100</parameter>
<parameter name="checkproperties" condition="int">100</parameter>
<parameter name="current" condition="int">0</parameter>
<parameter name="dmcwalkersperthread" condition="real">5.0000e+02</parameter>
<parameter name="maxcpusecs" condition="real">3.6000e+05</parameter>
<parameter name="record_configs" condition="int">0</parameter>
<parameter name="record_walkers" condition="int">1</parameter>
<parameter name="recordconfigs" condition="int">0</parameter>
<parameter name="recordwalkers" condition="int">1</parameter>
<parameter name="rewind" condition="int">0</parameter>
<parameter name="samples" condition="real">5.1200e+05</parameter>
<parameter name="samplesperthread" condition="real">5.0000e+02</parameter>
<parameter name="steps" condition="int">1</parameter>
<parameter name="stepsbetweensamples" condition="int">1</parameter>
<parameter name="store_configs" condition="int">0</parameter>
<parameter name="storeconfigs" condition="int">0</parameter>
<parameter name="sub_steps" condition="int">5</parameter>
<parameter name="substeps" condition="int">5</parameter>
<parameter name="tau" condition="au">1.5000e-01</parameter>
<parameter name="time_step" condition="au">1.5000e-01</parameter>
<parameter name="timestep" condition="au">1.5000e-01</parameter>
<parameter name="use_drift" condition="string">no</parameter>
<parameter name="usedrift" condition="string">no</parameter>
<parameter name="walkers" condition="int">1</parameter>
<parameter name="warmup_steps" condition="int">0</parameter>
<parameter name="warmupsteps" condition="int">0</parameter>
  DumpConfig==false Nothing (configurations, state) will be saved.
  Walker Samples are dumped every 1 steps.
</vmc>
  Set drift_modifier UNR parameter a = 1.0000e+00
  EstimatorManagerBase::add replace LocalEnergy estimator.
  Set drift_modifier UNR parameter a = 1.0000e+00
  EstimatorManagerBase::add replace LocalEnergy estimator.
<optimization-report>
<vmc stage="main" blocks="500">
  Cannot make clones again. Use existing 1 clones
  Initial partition of walkers 0 1 
  Using Particle by Particle moves
  Walker moves without drift
  Total Sample Size   =512000
  Walker distribution on root = 0 1 
  Using Locality Approximation
===== Memory Usage after the buffer registration =====
Available memory on node 0, free + buffers : 52585 MB
Memory footprint by rank 0 on node 0       : 589 MB
==================================================
====================================================
  SimpleFixedNodeBranch::finalize after a VMC block
    QMC counter        = 3
    time step          = 0.15
    reference energy   = -18.467
    reference variance = 0.0617751
====================================================
  Execution time = 4.4761e+00
</vmc>
<opt stage="setup">
  <log>
   Reading configurations from h5FileRoot Kr.log.s003
  QMCCostFunction is created with 1 threads.
  Using Nonlocal PP in Opt: NonLocalECP
   Number of samples loaded to each thread : 500 
  VMC Eavg = -1.8461e+01
  VMC Evar = 6.9780e-02
  Total weights = 5.1200e+05
  Execution time = 1.7701e+00
  </log>
</opt>
<opt stage="main" walkers="512000">
  <log>

*****************************************
Building overlap and Hamiltonian matrices
*****************************************

Among totally 82 optimized parameters, largest LM parameter change : 2.9550e-02 at parameter 24

******************************************************************************
Init Cost =  -1.7535e+01    New Cost =  -1.7535e+01  Delta Cost =  -4.0333e-05
******************************************************************************

The new set of parameters is valid. Updating the trial wave function!

*****************************************************************************
Applying the update for shift_i =   1.0000e-02     and shift_s =   1.5625e-02
*****************************************************************************
  Execution time = 7.7564e+00
  </log>
  <optVariables href="Kr.log.s003.opt.xml">
   uu_0                 3.518098e-01 1 1  ON 0
   uu_1                 1.744885e-01 1 1  ON 1
   uu_2                 6.482739e-02 1 1  ON 2
   uu_3                -9.094236e-03 1 1  ON 3
   uu_4                -5.762846e-02 1 1  ON 4
   uu_5                -1.022866e-01 1 1  ON 5
   uu_6                -1.329350e-01 1 1  ON 6
   uu_7                -1.417959e-01 1 1  ON 7
   uu_8                -1.227278e-01 1 1  ON 8
   uu_9                -6.700506e-02 1 1  ON 9
   ud_0                 6.565435e-01 1 1  ON 10
   ud_1                 3.009261e-01 1 1  ON 11
   ud_2                 9.521774e-02 1 1  ON 12
   ud_3                -2.082043e-02 1 1  ON 13
   ud_4                -7.333009e-02 1 1  ON 14
   ud_5                -1.126041e-01 1 1  ON 15
   ud_6                -1.467416e-01 1 1  ON 16
   ud_7                -1.860295e-01 1 1  ON 17
   ud_8                -1.959206e-01 1 1  ON 18
   ud_9                -1.535038e-01 1 1  ON 19
  eKr_0                -1.145520e+00 1 1  ON 20
  eKr_1                -1.035138e+00 1 1  ON 21
  eKr_2                -6.357130e-01 1 1  ON 22
  eKr_3                -5.871946e-02 1 1  ON 23
  eKr_4                 4.398247e-01 1 1  ON 24
  eKr_5                 5.461238e-01 1 1  ON 25
  eKr_6                 7.403590e-01 1 1  ON 26
  eKr_7                 7.629417e-01 1 1  ON 27
  eKr_8                 3.846382e-01 1 1  ON 28
  eKr_9                 2.061984e-02 1 1  ON 29
 uuKr_0                -3.377782e-05 1 1  ON 30
 uuKr_1                 2.291989e-05 1 1  ON 31
 uuKr_2                 2.787425e-05 1 1  ON 32
 uuKr_3                 4.759946e-05 1 1  ON 33
 uuKr_4                 5.697071e-06 1 1  ON 34
 uuKr_5                -1.283328e-06 1 1  ON 35
 uuKr_6                 9.406917e-05 1 1  ON 36
 uuKr_7                 1.325585e-05 1 1  ON 37
 uuKr_8                -3.560206e-05 1 1  ON 38
 uuKr_9                -4.427380e-05 1 1  ON 39
uuKr_10                 2.631140e-05 1 1  ON 40
uuKr_11                -7.074716e-06 1 1  ON 41
uuKr_12                 1.572882e-05 1 1  ON 42
uuKr_13                -7.534142e-05 1 1  ON 43
uuKr_14                -1.840285e-05 1 1  ON 44
uuKr_15                 2.469190e-07 1 1  ON 45
uuKr_16                 9.138002e-05 1 1  ON 46
uuKr_17                -1.066718e-04 1 1  ON 47
uuKr_18                 2.144844e-05 1 1  ON 48
uuKr_19                -7.436742e-06 1 1  ON 49
uuKr_20                 1.669485e-05 1 1  ON 50
uuKr_21                 1.788628e-06 1 1  ON 51
uuKr_22                 1.997871e-07 1 1  ON 52
uuKr_23                -4.673233e-06 1 1  ON 53
uuKr_24                -8.541342e-08 1 1  ON 54
uuKr_25                 1.551648e-08 1 1  ON 55
 udKr_0                -5.270882e-05 1 1  ON 56
 udKr_1                 5.689569e-05 1 1  ON 57
 udKr_2                 7.891463e-05 1 1  ON 58
 udKr_3                 6.765838e-05 1 1  ON 59
 udKr_4                 2.345180e-06 1 1  ON 60
 udKr_5                -4.406726e-06 1 1  ON 61
 udKr_6                 2.074855e-04 1 1  ON 62
 udKr_7                 1.202645e-05 1 1  ON 63
 udKr_8                -9.520469e-06 1 1  ON 64
 udKr_9                -1.246283e-04 1 1  ON 65
udKr_10                 3.854207e-05 1 1  ON 66
udKr_11                -3.603595e-05 1 1  ON 67
udKr_12                 1.263013e-05 1 1  ON 68
udKr_13                -7.607627e-05 1 1  ON 69
udKr_14                -1.704271e-05 1 1  ON 70
udKr_15                 3.589744e-07 1 1  ON 71
udKr_16                 1.933802e-04 1 1  ON 72
udKr_17                -1.284630e-04 1 1  ON 73
udKr_18                 3.176460e-05 1 1  ON 74
udKr_19                -6.979223e-06 1 1  ON 75
udKr_20                -2.653167e-06 1 1  ON 76
udKr_21                 2.993152e-06 1 1  ON 77
udKr_22                -3.965062e-08 1 1  ON 78
udKr_23                 5.181647e-07 1 1  ON 79
udKr_24                -8.876504e-07 1 1  ON 80
udKr_25                 1.234663e-07 1 1  ON 81
  </optVariables>
   Restore the number of walkers to 1, removing 0 walkers.
</opt>
</optimization-report>
  QMC Execution time = 7.769 secs
  Reusing QMCFixedSampleLinearOptimize
 Using QMCCostFunction::QMCCostFunction

=========================================================
  Start QMCFixedSampleLinearOptimize
  File Root Kr.log.s004 append = no 
=========================================================
  Skip QMCDriver::putQMCInfo 
  Resetting Properties of the walkers 1 x 13

=========================================================
  Start VMC
  File Root Kr.log.s004 append = no 
=========================================================
Using existing walkers 
  Resetting Properties of the walkers 1 x 13

<vmc function="put">
  qmc_counter=3  my_counter=3
  time step      = 1.5000e-01
  blocks         = 500
  steps          = 1
  substeps       = 5
  current        = 0
  target samples = 5.1200e+05
  walkers/mpi    = 1

  stepsbetweensamples = 1
<parameter name="blocks" condition="int">500</parameter>
<parameter name="blocks_between_recompute" condition="int">0</parameter>
<parameter name="check_properties" condition="int">100</parameter>
<parameter name="checkproperties" condition="int">100</parameter>
<parameter name="current" condition="int">0</parameter>
<parameter name="dmcwalkersperthread" condition="real">5.0000e+02</parameter>
<parameter name="maxcpusecs" condition="real">3.6000e+05</parameter>
<parameter name="record_configs" condition="int">0</parameter>
<parameter name="record_walkers" condition="int">1</parameter>
<parameter name="recordconfigs" condition="int">0</parameter>
<parameter name="recordwalkers" condition="int">1</parameter>
<parameter name="rewind" condition="int">0</parameter>
<parameter name="samples" condition="real">5.1200e+05</parameter>
<parameter name="samplesperthread" condition="real">5.0000e+02</parameter>
<parameter name="steps" condition="int">1</parameter>
<parameter name="stepsbetweensamples" condition="int">1</parameter>
<parameter name="store_configs" condition="int">0</parameter>
<parameter name="storeconfigs" condition="int">0</parameter>
<parameter name="sub_steps" condition="int">5</parameter>
<parameter name="substeps" condition="int">5</parameter>
<parameter name="tau" condition="au">1.5000e-01</parameter>
<parameter name="time_step" condition="au">1.5000e-01</parameter>
<parameter name="timestep" condition="au">1.5000e-01</parameter>
<parameter name="use_drift" condition="string">no</parameter>
<parameter name="usedrift" condition="string">no</parameter>
<parameter name="walkers" condition="int">1</parameter>
<parameter name="warmup_steps" condition="int">0</parameter>
<parameter name="warmupsteps" condition="int">0</parameter>
  DumpConfig==false Nothing (configurations, state) will be saved.
  Walker Samples are dumped every 1 steps.
</vmc>
  Set drift_modifier UNR parameter a = 1.0000e+00
  EstimatorManagerBase::add replace LocalEnergy estimator.
  Set drift_modifier UNR parameter a = 1.0000e+00
  EstimatorManagerBase::add replace LocalEnergy estimator.
<optimization-report>
<vmc stage="main" blocks="500">
  Cannot make clones again. Use existing 1 clones
  Initial partition of walkers 0 1 
  Using Particle by Particle moves
  Walker moves without drift
  Total Sample Size   =512000
  Walker distribution on root = 0 1 
  Using Locality Approximation
===== Memory Usage after the buffer registration =====
Available memory on node 0, free + buffers : 52582 MB
Memory footprint by rank 0 on node 0       : 592 MB
==================================================
====================================================
  SimpleFixedNodeBranch::finalize after a VMC block
    QMC counter        = 4
    time step          = 0.15
    reference energy   = -18.4677
    reference variance = 0.0518361
====================================================
  Execution time = 4.4669e+00
</vmc>
<opt stage="setup">
  <log>
   Reading configurations from h5FileRoot Kr.log.s004
  QMCCostFunction is created with 1 threads.
  Using Nonlocal PP in Opt: NonLocalECP
   Number of samples loaded to each thread : 500 
  VMC Eavg = -1.8461e+01
  VMC Evar = 7.4594e-02
  Total weights = 5.1200e+05
  Execution time = 1.7428e+00
  </log>
</opt>
<opt stage="main" walkers="512000">
  <log>

*****************************************
Building overlap and Hamiltonian matrices
*****************************************

Among totally 82 optimized parameters, largest LM parameter change : 2.2529e-02 at parameter 21

******************************************************************************
Init Cost =  -1.7535e+01    New Cost =  -1.7535e+01  Delta Cost =  -6.6567e-05
******************************************************************************

The new set of parameters is valid. Updating the trial wave function!

*****************************************************************************
Applying the update for shift_i =   1.0000e-02     and shift_s =   3.9062e-03
*****************************************************************************
  Execution time = 7.7052e+00
  </log>
  <optVariables href="Kr.log.s004.opt.xml">
   uu_0                 3.435323e-01 1 1  ON 0
   uu_1                 1.683577e-01 1 1  ON 1
   uu_2                 6.084528e-02 1 1  ON 2
   uu_3                -1.036276e-02 1 1  ON 3
   uu_4                -5.608849e-02 1 1  ON 4
   uu_5                -9.921219e-02 1 1  ON 5
   uu_6                -1.279267e-01 1 1  ON 6
   uu_7                -1.366303e-01 1 1  ON 7
   uu_8                -1.194020e-01 1 1  ON 8
   uu_9                -6.688579e-02 1 1  ON 9
   ud_0                 6.582304e-01 1 1  ON 10
   ud_1                 3.023237e-01 1 1  ON 11
   ud_2                 9.667079e-02 1 1  ON 12
   ud_3                -1.949831e-02 1 1  ON 13
   ud_4                -7.191080e-02 1 1  ON 14
   ud_5                -1.106671e-01 1 1  ON 15
   ud_6                -1.441430e-01 1 1  ON 16
   ud_7                -1.837310e-01 1 1  ON 17
   ud_8                -1.953391e-01 1 1  ON 18
   ud_9                -1.554913e-01 1 1  ON 19
  eKr_0                -1.141927e+00 1 1  ON 20
  eKr_1                -1.057667e+00 1 1  ON 21
  eKr_2                -6.560617e-01 1 1  ON 22
  eKr_3                -5.614470e-02 1 1  ON 23
  eKr_4                 4.597247e-01 1 1  ON 24
  eKr_5                 5.419474e-01 1 1  ON 25
  eKr_6                 7.370128e-01 1 1  ON 26
  eKr_7                 7.667888e-01 1 1  ON 27
  eKr_8                 4.012275e-01 1 1  ON 28
  eKr_9                 2.481565e-02 1 1  ON 29
 uuKr_0                -3.581346e-05 1 1  ON 30
 uuKr_1                 2.103819e-05 1 1  ON 31
 uuKr_2                 2.835198e-05 1 1  ON 32
 uuKr_3                 4.996927e-05 1 1  ON 33
 uuKr_4                 5.652198e-06 1 1  ON 34
 uuKr_5                -1.306737e-06 1 1  ON 35
 uuKr_6                 9.297437e-05 1 1  ON 36
 uuKr_7                 1.765285e-05 1 1  ON 37
 uuKr_8                -3.656516e-05 1 1  ON 38
 uuKr_9                -4.163826e-05 1 1  ON 39
uuKr_10                 2.756713e-05 1 1  ON 40
uuKr_11                -9.529539e-06 1 1  ON 41
uuKr_12                 1.593948e-05 1 1  ON 42
uuKr_13                -8.084224e-05 1 1  ON 43
uuKr_14                -1.856902e-05 1 1  ON 44
uuKr_15                 2.392626e-07 1 1  ON 45
uuKr_16                 9.332430e-05 1 1  ON 46
uuKr_17                -1.129794e-04 1 1  ON 47
uuKr_18                 2.506495e-05 1 1  ON 48
uuKr_19                -7.691198e-06 1 1  ON 49
uuKr_20                 1.841123e-05 1 1  ON 50
uuKr_21                 1.197383e-06 1 1  ON 51
uuKr_22                 2.717757e-07 1 1  ON 52
uuKr_23                -5.201506e-06 1 1  ON 53
uuKr_24                 5.733136e-08 1 1  ON 54
uuKr_25                -8.794811e-09 1 1  ON 55
 udKr_0                -5.219210e-05 1 1  ON 56
 udKr_1                 5.498401e-05 1 1  ON 57
 udKr_2                 7.668936e-05 1 1  ON 58
 udKr_3                 6.855928e-05 1 1  ON 59
 udKr_4                 2.720633e-06 1 1  ON 60
 udKr_5                -4.081905e-06 1 1  ON 61
 udKr_6                 2.024795e-04 1 1  ON 62
 udKr_7                 1.359306e-05 1 1  ON 63
 udKr_8                -1.056756e-05 1 1  ON 64
 udKr_9                -1.209764e-04 1 1  ON 65
udKr_10                 3.903702e-05 1 1  ON 66
udKr_11                -3.584629e-05 1 1  ON 67
udKr_12                 1.265013e-05 1 1  ON 68
udKr_13                -7.739357e-05 1 1  ON 69
udKr_14                -1.675620e-05 1 1  ON 70
udKr_15                 3.260656e-07 1 1  ON 71
udKr_16                 1.892953e-04 1 1  ON 72
udKr_17                -1.280471e-04 1 1  ON 73
udKr_18                 3.196171e-05 1 1  ON 74
udKr_19                -6.946021e-06 1 1  ON 75
udKr_20                -1.355700e-06 1 1  ON 76
udKr_21                 2.708057e-06 1 1  ON 77
udKr_22                 2.193691e-09 1 1  ON 78
udKr_23                 2.071561e-07 1 1  ON 79
udKr_24                -7.950214e-07 1 1  ON 80
udKr_25                 1.047287e-07 1 1  ON 81
  </optVariables>
   Restore the number of walkers to 1, removing 0 walkers.
</opt>
</optimization-report>
  QMC Execution time = 7.718 secs
  Reusing QMCFixedSampleLinearOptimize
 Using QMCCostFunction::QMCCostFunction

=========================================================
  Start QMCFixedSampleLinearOptimize
  File Root Kr.log.s005 append = no 
=========================================================
  Skip QMCDriver::putQMCInfo 
  Resetting Properties of the walkers 1 x 13

=========================================================
  Start VMC
  File Root Kr.log.s005 append = no 
=========================================================
Using existing walkers 
  Resetting Properties of the walkers 1 x 13

<vmc function="put">
  qmc_counter=4  my_counter=4
  time step      = 1.5000e-01
  blocks         = 500
  steps          = 1
  substeps       = 5
  current        = 0
  target samples = 5.1200e+05
  walkers/mpi    = 1

  stepsbetweensamples = 1
<parameter name="blocks" condition="int">500</parameter>
<parameter name="blocks_between_recompute" condition="int">0</parameter>
<parameter name="check_properties" condition="int">100</parameter>
<parameter name="checkproperties" condition="int">100</parameter>
<parameter name="current" condition="int">0</parameter>
<parameter name="dmcwalkersperthread" condition="real">5.0000e+02</parameter>
<parameter name="maxcpusecs" condition="real">3.6000e+05</parameter>
<parameter name="record_configs" condition="int">0</parameter>
<parameter name="record_walkers" condition="int">1</parameter>
<parameter name="recordconfigs" condition="int">0</parameter>
<parameter name="recordwalkers" condition="int">1</parameter>
<parameter name="rewind" condition="int">0</parameter>
<parameter name="samples" condition="real">5.1200e+05</parameter>
<parameter name="samplesperthread" condition="real">5.0000e+02</parameter>
<parameter name="steps" condition="int">1</parameter>
<parameter name="stepsbetweensamples" condition="int">1</parameter>
<parameter name="store_configs" condition="int">0</parameter>
<parameter name="storeconfigs" condition="int">0</parameter>
<parameter name="sub_steps" condition="int">5</parameter>
<parameter name="substeps" condition="int">5</parameter>
<parameter name="tau" condition="au">1.5000e-01</parameter>
<parameter name="time_step" condition="au">1.5000e-01</parameter>
<parameter name="timestep" condition="au">1.5000e-01</parameter>
<parameter name="use_drift" condition="string">no</parameter>
<parameter name="usedrift" condition="string">no</parameter>
<parameter name="walkers" condition="int">1</parameter>
<parameter name="warmup_steps" condition="int">0</parameter>
<parameter name="warmupsteps" condition="int">0</parameter>
  DumpConfig==false Nothing (configurations, state) will be saved.
  Walker Samples are dumped every 1 steps.
</vmc>
  Set drift_modifier UNR parameter a = 1.0000e+00
  EstimatorManagerBase::add replace LocalEnergy estimator.
  Set drift_modifier UNR parameter a = 1.0000e+00
  EstimatorManagerBase::add replace LocalEnergy estimator.
<optimization-report>
<vmc stage="main" blocks="500">
  Cannot make clones again. Use existing 1 clones
  Initial partition of walkers 0 1 
  Using Particle by Particle moves
  Walker moves without drift
  Total Sample Size   =512000
  Walker distribution on root = 0 1 
  Using Locality Approximation
===== Memory Usage after the buffer registration =====
Available memory on node 0, free + buffers : 52578 MB
Memory footprint by rank 0 on node 0       : 595 MB
==================================================
====================================================
  SimpleFixedNodeBranch::finalize after a VMC block
    QMC counter        = 5
    time step          = 0.15
    reference energy   = -18.4468
    reference variance = 0.0794331
====================================================
  Execution time = 4.4592e+00
</vmc>
<opt stage="setup">
  <log>
   Reading configurations from h5FileRoot Kr.log.s005
  QMCCostFunction is created with 1 threads.
  Using Nonlocal PP in Opt: NonLocalECP
   Number of samples loaded to each thread : 500 
  VMC Eavg = -1.8461e+01
  VMC Evar = 7.6980e-02
  Total weights = 5.1200e+05
  Execution time = 1.7266e+00
  </log>
</opt>
<opt stage="main" walkers="512000">
  <log>

*****************************************
Building overlap and Hamiltonian matrices
*****************************************

Among totally 82 optimized parameters, largest LM parameter change : 1.9598e-02 at parameter 21

******************************************************************************
Init Cost =  -1.7535e+01    New Cost =  -1.7535e+01  Delta Cost =  -2.4873e-05
******************************************************************************

The new set of parameters is valid. Updating the trial wave function!

*****************************************************************************
Applying the update for shift_i =   1.0000e-02     and shift_s =   3.9062e-03
*****************************************************************************
  Execution time = 7.6792e+00
  </log>
  <optVariables href="Kr.log.s005.opt.xml">
   uu_0                 3.367007e-01 1 1  ON 0
   uu_1                 1.620192e-01 1 1  ON 1
   uu_2                 5.758319e-02 1 1  ON 2
   uu_3                -1.026068e-02 1 1  ON 3
   uu_4                -5.337455e-02 1 1  ON 4
   uu_5                -9.601819e-02 1 1  ON 5
   uu_6                -1.262473e-01 1 1  ON 6
   uu_7                -1.348663e-01 1 1  ON 7
   uu_8                -1.178434e-01 1 1  ON 8
   uu_9                -6.496125e-02 1 1  ON 9
   ud_0                 6.567466e-01 1 1  ON 10
   ud_1                 3.017277e-01 1 1  ON 11
   ud_2                 9.603455e-02 1 1  ON 12
   ud_3                -2.008822e-02 1 1  ON 13
   ud_4                -7.164734e-02 1 1  ON 14
   ud_5                -1.091784e-01 1 1  ON 15
   ud_6                -1.409745e-01 1 1  ON 16
   ud_7                -1.805911e-01 1 1  ON 17
   ud_8                -1.909401e-01 1 1  ON 18
   ud_9                -1.550654e-01 1 1  ON 19
  eKr_0                -1.139678e+00 1 1  ON 20
  eKr_1                -1.077266e+00 1 1  ON 21
  eKr_2                -6.734163e-01 1 1  ON 22
  eKr_3                -5.341584e-02 1 1  ON 23
  eKr_4                 4.730256e-01 1 1  ON 24
  eKr_5                 5.373511e-01 1 1  ON 25
  eKr_6                 7.327738e-01 1 1  ON 26
  eKr_7                 7.721323e-01 1 1  ON 27
  eKr_8                 4.187449e-01 1 1  ON 28
  eKr_9                 2.964255e-02 1 1  ON 29
 uuKr_0                -3.637416e-05 1 1  ON 30
 uuKr_1                 2.159914e-05 1 1  ON 31
 uuKr_2                 3.076895e-05 1 1  ON 32
 uuKr_3                 5.009954e-05 1 1  ON 33
 uuKr_4                 4.627772e-06 1 1  ON 34
 uuKr_5                -6.518538e-07 1 1  ON 35
 uuKr_6                 9.582733e-05 1 1  ON 36
 uuKr_7                 1.976140e-05 1 1  ON 37
 uuKr_8                -3.257847e-05 1 1  ON 38
 uuKr_9                -4.413916e-05 1 1  ON 39
uuKr_10                 2.687973e-05 1 1  ON 40
uuKr_11                -1.338432e-05 1 1  ON 41
uuKr_12                 1.464349e-05 1 1  ON 42
uuKr_13                -7.944037e-05 1 1  ON 43
uuKr_14                -1.733522e-05 1 1  ON 44
uuKr_15                 2.406854e-07 1 1  ON 45
uuKr_16                 9.823491e-05 1 1  ON 46
uuKr_17                -1.131434e-04 1 1  ON 47
uuKr_18                 2.830316e-05 1 1  ON 48
uuKr_19                -7.423775e-06 1 1  ON 49
uuKr_20                 1.657300e-05 1 1  ON 50
uuKr_21                 4.528256e-07 1 1  ON 51
uuKr_22                 3.324023e-07 1 1  ON 52
uuKr_23                -4.393472e-06 1 1  ON 53
uuKr_24                 1.775003e-07 1 1  ON 54
uuKr_25                -3.232752e-08 1 1  ON 55
 udKr_0                -5.220229e-05 1 1  ON 56
 udKr_1                 5.923024e-05 1 1  ON 57
 udKr_2                 7.811578e-05 1 1  ON 58
 udKr_3                 6.562202e-05 1 1  ON 59
 udKr_4                 1.617925e-06 1 1  ON 60
 udKr_5                -4.432455e-06 1 1  ON 61
 udKr_6                 2.079173e-04 1 1  ON 62
 udKr_7                 1.302783e-05 1 1  ON 63
 udKr_8                -7.947480e-06 1 1  ON 64
 udKr_9                -1.246593e-04 1 1  ON 65
udKr_10                 3.656917e-05 1 1  ON 66
udKr_11                -3.554493e-05 1 1  ON 67
udKr_12                 1.156044e-05 1 1  ON 68
udKr_13                -7.424631e-05 1 1  ON 69
udKr_14                -1.588866e-05 1 1  ON 70
udKr_15                 3.400269e-07 1 1  ON 71
udKr_16                 1.931389e-04 1 1  ON 72
udKr_17                -1.242022e-04 1 1  ON 73
udKr_18                 3.020800e-05 1 1  ON 74
udKr_19                -6.288250e-06 1 1  ON 75
udKr_20                -3.184982e-06 1 1  ON 76
udKr_21                 2.878726e-06 1 1  ON 77
udKr_22                -6.838364e-08 1 1  ON 78
udKr_23                 5.882051e-07 1 1  ON 79
udKr_24                -8.806954e-07 1 1  ON 80
udKr_25                 1.201571e-07 1 1  ON 81
  </optVariables>
   Restore the number of walkers to 1, removing 0 walkers.
</opt>
</optimization-report>
  QMC Execution time = 7.692 secs
  Reusing QMCFixedSampleLinearOptimize
 Using QMCCostFunction::QMCCostFunction

=========================================================
  Start QMCFixedSampleLinearOptimize
  File Root Kr.log.s006 append = no 
=========================================================
  Skip QMCDriver::putQMCInfo 
  Resetting Properties of the walkers 1 x 13

=========================================================
  Start VMC
  File Root Kr.log.s006 append = no 
=========================================================
Using existing walkers 
  Resetting Properties of the walkers 1 x 13

<vmc function="put">
  qmc_counter=5  my_counter=5
  time step      = 1.5000e-01
  blocks         = 500
  steps          = 1
  substeps       = 5
  current        = 0
  target samples = 5.1200e+05
  walkers/mpi    = 1

  stepsbetweensamples = 1
<parameter name="blocks" condition="int">500</parameter>
<parameter name="blocks_between_recompute" condition="int">0</parameter>
<parameter name="check_properties" condition="int">100</parameter>
<parameter name="checkproperties" condition="int">100</parameter>
<parameter name="current" condition="int">0</parameter>
<parameter name="dmcwalkersperthread" condition="real">5.0000e+02</parameter>
<parameter name="maxcpusecs" condition="real">3.6000e+05</parameter>
<parameter name="record_configs" condition="int">0</parameter>
<parameter name="record_walkers" condition="int">1</parameter>
<parameter name="recordconfigs" condition="int">0</parameter>
<parameter name="recordwalkers" condition="int">1</parameter>
<parameter name="rewind" condition="int">0</parameter>
<parameter name="samples" condition="real">5.1200e+05</parameter>
<parameter name="samplesperthread" condition="real">5.0000e+02</parameter>
<parameter name="steps" condition="int">1</parameter>
<parameter name="stepsbetweensamples" condition="int">1</parameter>
<parameter name="store_configs" condition="int">0</parameter>
<parameter name="storeconfigs" condition="int">0</parameter>
<parameter name="sub_steps" condition="int">5</parameter>
<parameter name="substeps" condition="int">5</parameter>
<parameter name="tau" condition="au">1.5000e-01</parameter>
<parameter name="time_step" condition="au">1.5000e-01</parameter>
<parameter name="timestep" condition="au">1.5000e-01</parameter>
<parameter name="use_drift" condition="string">no</parameter>
<parameter name="usedrift" condition="string">no</parameter>
<parameter name="walkers" condition="int">1</parameter>
<parameter name="warmup_steps" condition="int">0</parameter>
<parameter name="warmupsteps" condition="int">0</parameter>
  DumpConfig==false Nothing (configurations, state) will be saved.
  Walker Samples are dumped every 1 steps.
</vmc>
  Set drift_modifier UNR parameter a = 1.0000e+00
  EstimatorManagerBase::add replace LocalEnergy estimator.
  Set drift_modifier UNR parameter a = 1.0000e+00
  EstimatorManagerBase::add replace LocalEnergy estimator.
<optimization-report>
<vmc stage="main" blocks="500">
  Cannot make clones again. Use existing 1 clones
  Initial partition of walkers 0 1 
  Using Particle by Particle moves
  Walker moves without drift
  Total Sample Size   =512000
  Walker distribution on root = 0 1 
  Using Locality Approximation
===== Memory Usage after the buffer registration =====
Available memory on node 0, free + buffers : 52574 MB
Memory footprint by rank 0 on node 0       : 599 MB
==================================================
====================================================
  SimpleFixedNodeBranch::finalize after a VMC block
    QMC counter        = 6
    time step          = 0.15
    reference energy   = -18.4718
    reference variance = 0.0662749
====================================================
  Execution time = 4.4711e+00
</vmc>
<opt stage="setup">
  <log>
   Reading configurations from h5FileRoot Kr.log.s006
  QMCCostFunction is created with 1 threads.
  Using Nonlocal PP in Opt: NonLocalECP
   Number of samples loaded to each thread : 500 
  VMC Eavg = -1.8461e+01
  VMC Evar = 7.3117e-02
  Total weights = 5.1200e+05
  Execution time = 1.7077e+00
  </log>
</opt>
<opt stage="main" walkers="512000">
  <log>

*****************************************
Building overlap and Hamiltonian matrices
*****************************************

Among totally 82 optimized parameters, largest LM parameter change : 2.0183e-02 at parameter 28

******************************************************************************
Init Cost =  -1.7535e+01    New Cost =  -1.7535e+01  Delta Cost =  -4.2785e-05
******************************************************************************

The new set of parameters is valid. Updating the trial wave function!

*****************************************************************************
Applying the update for shift_i =   1.0000e-02     and shift_s =   3.9062e-03
*****************************************************************************
  Execution time = 7.6701e+00
  </log>
  <optVariables href="Kr.log.s006.opt.xml">
   uu_0                 3.311637e-01 1 1  ON 0
   uu_1                 1.579201e-01 1 1  ON 1
   uu_2                 5.513075e-02 1 1  ON 2
   uu_3                -1.048888e-02 1 1  ON 3
   uu_4                -5.243646e-02 1 1  ON 4
   uu_5                -9.458239e-02 1 1  ON 5
   uu_6                -1.231657e-01 1 1  ON 6
   uu_7                -1.331339e-01 1 1  ON 7
   uu_8                -1.169330e-01 1 1  ON 8
   uu_9                -6.341165e-02 1 1  ON 9
   ud_0                 6.569639e-01 1 1  ON 10
   ud_1                 3.018150e-01 1 1  ON 11
   ud_2                 9.697459e-02 1 1  ON 12
   ud_3                -1.819927e-02 1 1  ON 13
   ud_4                -6.952881e-02 1 1  ON 14
   ud_5                -1.074377e-01 1 1  ON 15
   ud_6                -1.401464e-01 1 1  ON 16
   ud_7                -1.798689e-01 1 1  ON 17
   ud_8                -1.907735e-01 1 1  ON 18
   ud_9                -1.542316e-01 1 1  ON 19
  eKr_0                -1.138453e+00 1 1  ON 20
  eKr_1                -1.093168e+00 1 1  ON 21
  eKr_2                -6.872718e-01 1 1  ON 22
  eKr_3                -5.161732e-02 1 1  ON 23
  eKr_4                 4.808091e-01 1 1  ON 24
  eKr_5                 5.325736e-01 1 1  ON 25
  eKr_6                 7.279104e-01 1 1  ON 26
  eKr_7                 7.764544e-01 1 1  ON 27
  eKr_8                 4.389279e-01 1 1  ON 28
  eKr_9                 3.411628e-02 1 1  ON 29
 uuKr_0                -3.373050e-05 1 1  ON 30
 uuKr_1                 3.347135e-05 1 1  ON 31
 uuKr_2                 3.101239e-05 1 1  ON 32
 uuKr_3                 4.223458e-05 1 1  ON 33
 uuKr_4                 3.070618e-06 1 1  ON 34
 uuKr_5                -1.671254e-06 1 1  ON 35
 uuKr_6                 1.094929e-04 1 1  ON 36
 uuKr_7                 9.553172e-06 1 1  ON 37
 uuKr_8                -3.078861e-05 1 1  ON 38
 uuKr_9                -5.414146e-05 1 1  ON 39
uuKr_10                 2.105870e-05 1 1  ON 40
uuKr_11                -7.033274e-06 1 1  ON 41
uuKr_12                 1.332795e-05 1 1  ON 42
uuKr_13                -7.007352e-05 1 1  ON 43
uuKr_14                -1.678255e-05 1 1  ON 44
uuKr_15                 3.047044e-07 1 1  ON 45
uuKr_16                 1.044001e-04 1 1  ON 46
uuKr_17                -1.035318e-04 1 1  ON 47
uuKr_18                 2.163806e-05 1 1  ON 48
uuKr_19                -6.237773e-06 1 1  ON 49
uuKr_20                 1.246623e-05 1 1  ON 50
uuKr_21                 1.315026e-06 1 1  ON 51
uuKr_22                 1.502500e-07 1 1  ON 52
uuKr_23                -3.512758e-06 1 1  ON 53
uuKr_24                -5.158015e-08 1 1  ON 54
uuKr_25                 9.577776e-09 1 1  ON 55
 udKr_0                -5.108826e-05 1 1  ON 56
 udKr_1                 6.097881e-05 1 1  ON 57
 udKr_2                 7.784538e-05 1 1  ON 58
 udKr_3                 6.440103e-05 1 1  ON 59
 udKr_4                 1.251082e-06 1 1  ON 60
 udKr_5                -4.159841e-06 1 1  ON 61
 udKr_6                 2.088744e-04 1 1  ON 62
 udKr_7                 1.325406e-05 1 1  ON 63
 udKr_8                -6.794481e-06 1 1  ON 64
 udKr_9                -1.263537e-04 1 1  ON 65
udKr_10                 3.548550e-05 1 1  ON 66
udKr_11                -3.611827e-05 1 1  ON 67
udKr_12                 1.115010e-05 1 1  ON 68
udKr_13                -7.216849e-05 1 1  ON 69
udKr_14                -1.540027e-05 1 1  ON 70
udKr_15                 3.291550e-07 1 1  ON 71
udKr_16                 1.942788e-04 1 1  ON 72
udKr_17                -1.227075e-04 1 1  ON 73
udKr_18                 3.068569e-05 1 1  ON 74
udKr_19                -6.197107e-06 1 1  ON 75
udKr_20                -4.072792e-06 1 1  ON 76
udKr_21                 2.672645e-06 1 1  ON 77
udKr_22                -4.696295e-08 1 1  ON 78
udKr_23                 9.123463e-07 1 1  ON 79
udKr_24                -8.467368e-07 1 1  ON 80
udKr_25                 1.125384e-07 1 1  ON 81
  </optVariables>
   Restore the number of walkers to 1, removing 0 walkers.
</opt>
</optimization-report>
  QMC Execution time = 7.682 secs
  Reusing QMCFixedSampleLinearOptimize
 Using QMCCostFunction::QMCCostFunction

=========================================================
  Start QMCFixedSampleLinearOptimize
  File Root Kr.log.s007 append = no 
=========================================================
  Skip QMCDriver::putQMCInfo 
  Resetting Properties of the walkers 1 x 13

=========================================================
  Start VMC
  File Root Kr.log.s007 append = no 
=========================================================
Using existing walkers 
  Resetting Properties of the walkers 1 x 13

<vmc function="put">
  qmc_counter=6  my_counter=6
  time step      = 1.5000e-01
  blocks         = 500
  steps          = 1
  substeps       = 5
  current        = 0
  target samples = 5.1200e+05
  walkers/mpi    = 1

  stepsbetweensamples = 1
<parameter name="blocks" condition="int">500</parameter>
<parameter name="blocks_between_recompute" condition="int">0</parameter>
<parameter name="check_properties" condition="int">100</parameter>
<parameter name="checkproperties" condition="int">100</parameter>
<parameter name="current" condition="int">0</parameter>
<parameter name="dmcwalkersperthread" condition="real">5.0000e+02</parameter>
<parameter name="maxcpusecs" condition="real">3.6000e+05</parameter>
<parameter name="record_configs" condition="int">0</parameter>
<parameter name="record_walkers" condition="int">1</parameter>
<parameter name="recordconfigs" condition="int">0</parameter>
<parameter name="recordwalkers" condition="int">1</parameter>
<parameter name="rewind" condition="int">0</parameter>
<parameter name="samples" condition="real">5.1200e+05</parameter>
<parameter name="samplesperthread" condition="real">5.0000e+02</parameter>
<parameter name="steps" condition="int">1</parameter>
<parameter name="stepsbetweensamples" condition="int">1</parameter>
<parameter name="store_configs" condition="int">0</parameter>
<parameter name="storeconfigs" condition="int">0</parameter>
<parameter name="sub_steps" condition="int">5</parameter>
<parameter name="substeps" condition="int">5</parameter>
<parameter name="tau" condition="au">1.5000e-01</parameter>
<parameter name="time_step" condition="au">1.5000e-01</parameter>
<parameter name="timestep" condition="au">1.5000e-01</parameter>
<parameter name="use_drift" condition="string">no</parameter>
<parameter name="usedrift" condition="string">no</parameter>
<parameter name="walkers" condition="int">1</parameter>
<parameter name="warmup_steps" condition="int">0</parameter>
<parameter name="warmupsteps" condition="int">0</parameter>
  DumpConfig==false Nothing (configurations, state) will be saved.
  Walker Samples are dumped every 1 steps.
</vmc>
  Set drift_modifier UNR parameter a = 1.0000e+00
  EstimatorManagerBase::add replace LocalEnergy estimator.
  Set drift_modifier UNR parameter a = 1.0000e+00
  EstimatorManagerBase::add replace LocalEnergy estimator.
<optimization-report>
<vmc stage="main" blocks="500">
  Cannot make clones again. Use existing 1 clones
  Initial partition of walkers 0 1 
  Using Particle by Particle moves
  Walker moves without drift
  Total Sample Size   =512000
  Walker distribution on root = 0 1 
  Using Locality Approximation
===== Memory Usage after the buffer registration =====
Available memory on node 0, free + buffers : 52570 MB
Memory footprint by rank 0 on node 0       : 602 MB
==================================================
====================================================
  SimpleFixedNodeBranch::finalize after a VMC block
    QMC counter        = 7
    time step          = 0.15
    reference energy   = -18.4581
    reference variance = 0.0645692
====================================================
  Execution time = 4.4957e+00
</vmc>
<opt stage="setup">
  <log>
   Reading configurations from h5FileRoot Kr.log.s007
  QMCCostFunction is created with 1 threads.
  Using Nonlocal PP in Opt: NonLocalECP
   Number of samples loaded to each thread : 500 
  VMC Eavg = -1.8462e+01
  VMC Evar = 7.8367e-02
  Total weights = 5.1200e+05
  Execution time = 1.7042e+00
  </log>
</opt>
<opt stage="main" walkers="512000">
  <log>

*****************************************
Building overlap and Hamiltonian matrices
*****************************************

Among totally 82 optimized parameters, largest LM parameter change : 1.5762e-02 at parameter 28

******************************************************************************
Init Cost =  -1.7535e+01    New Cost =  -1.7535e+01  Delta Cost =  -3.9447e-05
******************************************************************************

The new set of parameters is valid. Updating the trial wave function!

*****************************************************************************
Applying the update for shift_i =   1.0000e-02     and shift_s =   3.9062e-03
*****************************************************************************
  Execution time = 7.6687e+00
  </log>
  <optVariables href="Kr.log.s007.opt.xml">
   uu_0                 3.265098e-01 1 1  ON 0
   uu_1                 1.551122e-01 1 1  ON 1
   uu_2                 5.468776e-02 1 1  ON 2
   uu_3                -9.661506e-03 1 1  ON 3
   uu_4                -5.096124e-02 1 1  ON 4
   uu_5                -9.274018e-02 1 1  ON 5
   uu_6                -1.219328e-01 1 1  ON 6
   uu_7                -1.312082e-01 1 1  ON 7
   uu_8                -1.168785e-01 1 1  ON 8
   uu_9                -6.256006e-02 1 1  ON 9
   ud_0                 6.580419e-01 1 1  ON 10
   ud_1                 3.041301e-01 1 1  ON 11
   ud_2                 9.904134e-02 1 1  ON 12
   ud_3                -1.639286e-02 1 1  ON 13
   ud_4                -6.788163e-02 1 1  ON 14
   ud_5                -1.063321e-01 1 1  ON 15
   ud_6                -1.387166e-01 1 1  ON 16
   ud_7                -1.784424e-01 1 1  ON 17
   ud_8                -1.908072e-01 1 1  ON 18
   ud_9                -1.550622e-01 1 1  ON 19
  eKr_0                -1.137136e+00 1 1  ON 20
  eKr_1                -1.107469e+00 1 1  ON 21
  eKr_2                -6.999409e-01 1 1  ON 22
  eKr_3                -5.290523e-02 1 1  ON 23
  eKr_4                 4.881110e-01 1 1  ON 24
  eKr_5                 5.302838e-01 1 1  ON 25
  eKr_6                 7.277956e-01 1 1  ON 26
  eKr_7                 7.776833e-01 1 1  ON 27
  eKr_8                 4.546901e-01 1 1  ON 28
  eKr_9                 3.966211e-02 1 1  ON 29
 uuKr_0                -3.340727e-05 1 1  ON 30
 uuKr_1                 3.212387e-05 1 1  ON 31
 uuKr_2                 2.876386e-05 1 1  ON 32
 uuKr_3                 4.192260e-05 1 1  ON 33
 uuKr_4                 3.260443e-06 1 1  ON 34
 uuKr_5                -1.338639e-06 1 1  ON 35
 uuKr_6                 1.056475e-04 1 1  ON 36
 uuKr_7                 9.371227e-06 1 1  ON 37
 uuKr_8                -3.248967e-05 1 1  ON 38
 uuKr_9                -5.124338e-05 1 1  ON 39
uuKr_10                 2.046495e-05 1 1  ON 40
uuKr_11                -4.676984e-06 1 1  ON 41
uuKr_12                 1.352098e-05 1 1  ON 42
uuKr_13                -6.997143e-05 1 1  ON 43
uuKr_14                -1.691298e-05 1 1  ON 44
uuKr_15                 2.962287e-07 1 1  ON 45
uuKr_16                 1.012110e-04 1 1  ON 46
uuKr_17                -1.017464e-04 1 1  ON 47
uuKr_18                 1.955548e-05 1 1  ON 48
uuKr_19                -6.077744e-06 1 1  ON 49
uuKr_20                 1.290678e-05 1 1  ON 50
uuKr_21                 1.552021e-06 1 1  ON 51
uuKr_22                 1.208032e-07 1 1  ON 52
uuKr_23                -3.544415e-06 1 1  ON 53
uuKr_24                -9.352591e-08 1 1  ON 54
uuKr_25                 1.542875e-08 1 1  ON 55
 udKr_0                -5.365671e-05 1 1  ON 56
 udKr_1                 6.425821e-05 1 1  ON 57
 udKr_2                 7.965809e-05 1 1  ON 58
 udKr_3                 6.306803e-05 1 1  ON 59
[...]
   uu_2                 5.444233e-02 1 1  ON 2
   uu_3                -5.945976e-03 1 1  ON 3
   uu_4                -4.421386e-02 1 1  ON 4
   uu_5                -8.533750e-02 1 1  ON 5
   uu_6                -1.151319e-01 1 1  ON 6
   uu_7                -1.271836e-01 1 1  ON 7
   uu_8                -1.215183e-01 1 1  ON 8
   uu_9                -7.724209e-02 1 1  ON 9
   ud_0                 6.750786e-01 1 1  ON 10
   ud_1                 3.219640e-01 1 1  ON 11
   ud_2                 1.192435e-01 1 1  ON 12
   ud_3                 6.751575e-03 1 1  ON 13
   ud_4                -4.220939e-02 1 1  ON 14
   ud_5                -7.989811e-02 1 1  ON 15
   ud_6                -1.144801e-01 1 1  ON 16
   ud_7                -1.583072e-01 1 1  ON 17
   ud_8                -1.809859e-01 1 1  ON 18
   ud_9                -1.657937e-01 1 1  ON 19
  eKr_0                -1.160218e+00 1 1  ON 20
  eKr_1                -1.197475e+00 1 1  ON 21
  eKr_2                -7.981245e-01 1 1  ON 22
  eKr_3                -9.709868e-02 1 1  ON 23
  eKr_4                 4.942258e-01 1 1  ON 24
  eKr_5                 5.396276e-01 1 1  ON 25
  eKr_6                 7.488813e-01 1 1  ON 26
  eKr_7                 8.118321e-01 1 1  ON 27
  eKr_8                 5.916995e-01 1 1  ON 28
  eKr_9                 9.329720e-02 1 1  ON 29
 uuKr_0                -3.513284e-05 1 1  ON 30
 uuKr_1                 3.724825e-05 1 1  ON 31
 uuKr_2                 3.338824e-05 1 1  ON 32
 uuKr_3                 4.169909e-05 1 1  ON 33
 uuKr_4                 1.572045e-06 1 1  ON 34
 uuKr_5                -1.084418e-06 1 1  ON 35
 uuKr_6                 1.157400e-04 1 1  ON 36
 uuKr_7                 1.200442e-05 1 1  ON 37
 uuKr_8                -2.699857e-05 1 1  ON 38
 uuKr_9                -5.698514e-05 1 1  ON 39
uuKr_10                 1.911501e-05 1 1  ON 40
uuKr_11                -9.693223e-06 1 1  ON 41
uuKr_12                 1.170663e-05 1 1  ON 42
uuKr_13                -6.994657e-05 1 1  ON 43
uuKr_14                -1.540011e-05 1 1  ON 44
uuKr_15                 3.149836e-07 1 1  ON 45
uuKr_16                 1.110072e-04 1 1  ON 46
uuKr_17                -1.033961e-04 1 1  ON 47
uuKr_18                 2.303833e-05 1 1  ON 48
uuKr_19                -5.529483e-06 1 1  ON 49
uuKr_20                 1.149899e-05 1 1  ON 50
uuKr_21                 8.603704e-07 1 1  ON 51
uuKr_22                 1.430055e-07 1 1  ON 52
uuKr_23                -3.154909e-06 1 1  ON 53
uuKr_24                -1.658895e-08 1 1  ON 54
uuKr_25                 1.483788e-09 1 1  ON 55
 udKr_0                -5.326477e-05 1 1  ON 56
 udKr_1                 6.123503e-05 1 1  ON 57
 udKr_2                 8.213057e-05 1 1  ON 58
 udKr_3                 6.611016e-05 1 1  ON 59
 udKr_4                 3.819425e-07 1 1  ON 60
 udKr_5                -3.988730e-06 1 1  ON 61
 udKr_6                 2.111420e-04 1 1  ON 62
 udKr_7                 1.838980e-05 1 1  ON 63
 udKr_8                -2.140227e-06 1 1  ON 64
 udKr_9                -1.266725e-04 1 1  ON 65
udKr_10                 3.686257e-05 1 1  ON 66
udKr_11                -4.317764e-05 1 1  ON 67
udKr_12                 9.917031e-06 1 1  ON 68
udKr_13                -7.484775e-05 1 1  ON 69
udKr_14                -1.415155e-05 1 1  ON 70
udKr_15                 3.226519e-07 1 1  ON 71
udKr_16                 1.989472e-04 1 1  ON 72
udKr_17                -1.270693e-04 1 1  ON 73
udKr_18                 3.673580e-05 1 1  ON 74
udKr_19                -6.163638e-06 1 1  ON 75
udKr_20                -3.904661e-06 1 1  ON 76
udKr_21                 1.598073e-06 1 1  ON 77
udKr_22                 6.264861e-08 1 1  ON 78
udKr_23                 8.191670e-07 1 1  ON 79
udKr_24                -6.703338e-07 1 1  ON 80
udKr_25                 7.677239e-08 1 1  ON 81
  </optVariables>
   Restore the number of walkers to 1, removing 0 walkers.
</opt>
</optimization-report>
  QMC Execution time = 7.347 secs

=========================================================
  Start VMC
  File Root Kr.log.s021 append = no 
=========================================================
  Using the current 1 walkers.
  Total number of walkers: 1024
  Total weight: 1024
  Resetting Properties of the walkers 1 x 13

<vmc function="put">
  qmc_counter=0  my_counter=0
  time step      = 0.15
  blocks         = 200
  steps          = 1
  substeps       = 30
  current        = 0
  target samples = 4096
  walkers/mpi    = 1

  stepsbetweensamples = 50
<parameter name="blocks" condition="int">200</parameter>
<parameter name="blocks_between_recompute" condition="int">0</parameter>
<parameter name="check_properties" condition="int">100</parameter>
<parameter name="checkproperties" condition="int">100</parameter>
<parameter name="current" condition="int">0</parameter>
<parameter name="dmcwalkersperthread" condition="real">4</parameter>
<parameter name="maxcpusecs" condition="real">3.6e+05</parameter>
<parameter name="record_configs" condition="int">0</parameter>
<parameter name="record_walkers" condition="int">50</parameter>
<parameter name="recordconfigs" condition="int">0</parameter>
<parameter name="recordwalkers" condition="int">50</parameter>
<parameter name="rewind" condition="int">0</parameter>
<parameter name="samples" condition="real">4096</parameter>
<parameter name="samplesperthread" condition="real">4</parameter>
<parameter name="steps" condition="int">1</parameter>
<parameter name="stepsbetweensamples" condition="int">50</parameter>
<parameter name="store_configs" condition="int">0</parameter>
<parameter name="storeconfigs" condition="int">0</parameter>
<parameter name="sub_steps" condition="int">30</parameter>
<parameter name="substeps" condition="int">30</parameter>
<parameter name="tau" condition="au">0.15</parameter>
<parameter name="time_step" condition="au">0.15</parameter>
<parameter name="timestep" condition="au">0.15</parameter>
<parameter name="use_drift" condition="string">no</parameter>
<parameter name="usedrift" condition="string">no</parameter>
<parameter name="walkers" condition="int">1</parameter>
<parameter name="warmup_steps" condition="int">100</parameter>
<parameter name="warmupsteps" condition="int">100</parameter>
  DumpConfig==true Configurations are dumped to config.h5 with a period of 200 blocks
  Walker Samples are dumped every 50 steps.
</vmc>
  Set drift_modifier UNR parameter a = 1
  EstimatorManagerBase::add replace LocalEnergy estimator.
  Cannot make clones again. Use existing 1 clones
  Initial partition of walkers 0 1 

  Using Particle by Particle moves
  Walker moves without drift
  Total Sample Size   =4096
  Walker distribution on root = 0 1 
  Using Locality Approximation
===== Memory Usage after the buffer registration =====
Available memory on node 0, free + buffers : 52507 MB
Memory footprint by rank 0 on node 0       : 646 MB
==================================================
  Anonymous Buffer size per walker : 2912 Bytes.
MEMORY increase 0 MB VMC::resetRun
  samples are written to the config.h5
====================================================
  SimpleFixedNodeBranch::finalize after a VMC block
    QMC counter        = 21
    time step          = 0.15
    reference energy   = -18.4556
    reference variance = 0.0843278
====================================================
  QMC Execution time = 4.157 secs

=========================================================
  Start DMC
  File Root Kr.log.s022 append = no 
=========================================================
Using existing walkers 
  Resetting Properties of the walkers 1 x 13
  Set drift_modifier UNR parameter a = 1
  EstimatorManagerBase::add replace LocalEnergy estimator.
  Cannot make clones again. Use existing 1 clones
  Total number of walkers: 4096
  Total weight: 4096
  Creating WalkerController: target  number of walkers = 4096
  Using WalkerControlMPI for dynamic population control.
  START ALL OVER 
  WalkerControlBase parameters 
    maxCopy = 2
    Max Walkers per MPI rank 9
    Min Walkers per MPI rank 1
    Using non-blocking send/recv
  QMC counter      = 22
  time step        = 0.02
  effective time step = 0.02
  trial energy     = -18.46
  reference energy = -18.46
  Feedback = 1
  reference variance = 0.08433
  target walkers = 4096
  branching cutoff scheme classic
  branch cutoff = 50 75
  Max and minimum walkers per node= 9 1
  QMC Status (BranchMode) = 0000001101
  Initial partition of walkers on a node: 0 4 
  Updates by particle-by-particle moves
  DMC moves are rejected when a node crossing is detected
  Using Non-local T-moves v1, M. Casula et al., JCP 132, 154113 (2010)
===== Memory Usage after the buffer registration =====
Available memory on node 0, free + buffers : 52445 MB
Memory footprint by rank 0 on node 0       : 660 MB
==================================================
SimpleFixedNodeBranch::checkParameters 
  Average Energy of a population  = -18.4622
  Energy Variance = 0.0960615

  Fluctuating population
  Persistent walkers are killed after 1 MC sweeps
  BranchInterval = 1
  Steps per block = 50
  Number of blocks = 150

  DMC Engine Initialization = 0.03804 secs

 Warmup is completed after 200

  TauEff     = 0.01981
 TauEff/Tau = 0.9903
  Etrial     = -18.48
 Running average of energy = -18.47
                  Variance = 0.06642
branch cutoff = 10 15
====================================================
  SimpleFixedNodeBranch::finalize after a DMC block
    QMC counter                   = 22
    time step                     = 0.02
    effective time step           = 0.0198042
    trial energy                  = -18.4684
    reference energy              = -18.468
    reference variance            = 0.0664239
    target walkers                = 4096
    branch cutoff                 = 10 15
    Max and minimum walkers per node= 9 1
    Feedback                      = 1
    QMC Status (BranchMode)       = 0000001111
====================================================
  QMC Execution time = 261.5 secs
  Reusing DMC
BRANCH resetRun
 SimpleFixedNodeBranch::resetRun detected changes in <parameter>'s 
 BranchMode : 0000001111 0000001111
  WalkerControlBase parameters 
    maxCopy = 2
    Max Walkers per MPI rank 9
    Min Walkers per MPI rank 1
    Using non-blocking send/recv
 iParam (old):                  0                 1                22              4096                 9                 1                 1                 0
 iParam (new):                100                 1                22              4096                 9                 1                 1                 0
 vParam (old):               0.02     0.01980415801      -18.46844503      -18.46795687      -18.46414524                15                10               0.2     0.06642392532      -134834.5493              7301                 1                10                 1                 1                 1                 1
 vParam (new):               0.01     0.01980415801      -18.46844503      -18.46795687      -18.46414524                15                10               0.2     0.06642392532      -134834.5493              7301                 1                10                 1                 1                 1                 1

 Using branching cutoff scheme classic
SimpleFixedNodeBranch::checkParameters 
  Average Energy of a population  = -18.4641
  Energy Variance = 0.0683783

  Using Non-local T-moves v1, M. Casula et al., JCP 132, 154113 (2010)
===== Memory Usage after the buffer registration =====
Available memory on node 0, free + buffers : 52452 MB
Memory footprint by rank 0 on node 0       : 662 MB
==================================================

=========================================================
  Start DMC
  File Root Kr.log.s023 append = no 
=========================================================
Using existing walkers 
  Resetting Properties of the walkers 1 x 13
  Set drift_modifier UNR parameter a = 1
  EstimatorManagerBase::add replace LocalEnergy estimator.
  Cannot make clones again. Use existing 1 clones
SimpleFixedNodeBranch::checkParameters 
  Average Energy of a population  = -18.4645
  Energy Variance = 0.0654325

  Fluctuating population
  Persistent walkers are killed after 1 MC sweeps
  BranchInterval = 1
  Steps per block = 100
  Number of blocks = 200

  DMC Engine Initialization = 0.003423929214 secs

 Warmup is completed after 100

  TauEff     = 0.0099625174
 TauEff/Tau = 0.99625174
  Etrial     = -18.41588719
 Running average of energy = -18.46802553
                  Variance = 0.07058925714
branch cutoff = 10 15
====================================================
  SimpleFixedNodeBranch::finalize after a DMC block
    QMC counter                   = 23
    time step                     = 0.01
    effective time step           = 0.0099634
    trial energy                  = -18.4594
    reference energy              = -18.468
    reference variance            = 0.0705893
    target walkers                = 4096
    branch cutoff                 = 10 15
    Max and minimum walkers per node= 9 1
    Feedback                      = 1
    QMC Status (BranchMode)       = 0000001111
====================================================
  QMC Execution time = 693.9 secs
  Reusing DMC
BRANCH resetRun
 SimpleFixedNodeBranch::resetRun detected changes in <parameter>'s 
 BranchMode : 0000001111 0000001111
  WalkerControlBase parameters 
    maxCopy = 2
    Max Walkers per MPI rank 9
    Min Walkers per MPI rank 1
    Using non-blocking send/recv
 iParam (old):                  0                 1                23              4096                 9                 1                 1                 0
 iParam (new):                200                 1                23              4096                 9                 1                 1                 0
 vParam (old):               0.01    0.009963395093      -18.45942671      -18.46800835      -18.46744018                15                10               0.2     0.07058925714      -367531.8336             19901                 1                10                 1                 1                 1                 1
 vParam (new):              0.005    0.009963395093      -18.45942671      -18.46800835      -18.46744018                15                10               0.2     0.07058925714      -367531.8336             19901                 1                10                 1                 1                 1                 1

 Using branching cutoff scheme classic
SimpleFixedNodeBranch::checkParameters 
  Average Energy of a population  = -18.467
  Energy Variance = 0.066703

  Using Non-local T-moves v1, M. Casula et al., JCP 132, 154113 (2010)
===== Memory Usage after the buffer registration =====
Available memory on node 0, free + buffers : 52435 MB
Memory footprint by rank 0 on node 0       : 666 MB
==================================================

=========================================================
  Start DMC
  File Root Kr.log.s024 append = no 
=========================================================
Using existing walkers 
  Resetting Properties of the walkers 1 x 13
  Set drift_modifier UNR parameter a = 1
  EstimatorManagerBase::add replace LocalEnergy estimator.
  Cannot make clones again. Use existing 1 clones
SimpleFixedNodeBranch::checkParameters 
  Average Energy of a population  = -18.4669
  Energy Variance = 0.0659144

  Fluctuating population
  Persistent walkers are killed after 1 MC sweeps
  BranchInterval = 1
  Steps per block = 200
  Number of blocks = 250

  DMC Engine Initialization = 0.001783847809 secs

 Warmup is completed after 200

  TauEff     = 0.004993289256
 TauEff/Tau = 0.9986578513
  Etrial     = -18.61646049
 Running average of energy = -18.46867886
                  Variance = 0.06384556536
branch cutoff = 10 15
====================================================
  SimpleFixedNodeBranch::finalize after a DMC block
    QMC counter                   = 24
    time step                     = 0.005
    effective time step           = 0.00499327
    trial energy                  = -18.4637
    reference energy              = -18.4681
    reference variance            = 0.0638456
    target walkers                = 4096
    branch cutoff                 = 10 15
    Max and minimum walkers per node= 9 1
    Feedback                      = 1
    QMC Status (BranchMode)       = 0000001111
====================================================
  QMC Execution time = 1728 secs
  Reusing DMC
BRANCH resetRun
 SimpleFixedNodeBranch::resetRun detected changes in <parameter>'s 
 BranchMode : 0000001111 0000001111
  WalkerControlBase parameters 
    maxCopy = 2
    Max Walkers per MPI rank 9
    Min Walkers per MPI rank 1
    Using non-blocking send/recv
 iParam (old):                  0                 1                24              4096                 9                 1                 1                 0
 iParam (new):                400                 1                24              4096                 9                 1                 1                 0
 vParam (old):              0.005    0.004993269082      -18.46371547      -18.46811968       -18.4683009                15                10               0.2     0.06384556536      -919730.8285             49801                 1                10                 1                 1                 1                 1
 vParam (new):             0.0025    0.004993269082      -18.46371547      -18.46811968       -18.4683009                15                10               0.2     0.06384556536      -919730.8285             49801                 1                10                 1                 1                 1                 1

 Using branching cutoff scheme classic
SimpleFixedNodeBranch::checkParameters 
  Average Energy of a population  = -18.4681
  Energy Variance = 0.0763696

  Using Non-local T-moves v1, M. Casula et al., JCP 132, 154113 (2010)
===== Memory Usage after the buffer registration =====
Available memory on node 0, free + buffers : 52391 MB
Memory footprint by rank 0 on node 0       : 670 MB
==================================================

=========================================================
  Start DMC
  File Root Kr.log.s025 append = no 
=========================================================
Using existing walkers 
  Resetting Properties of the walkers 1 x 13
  Set drift_modifier UNR parameter a = 1
  EstimatorManagerBase::add replace LocalEnergy estimator.
  Cannot make clones again. Use existing 1 clones
SimpleFixedNodeBranch::checkParameters 
  Average Energy of a population  = -18.4681
  Energy Variance = 0.0742844

  Fluctuating population
  Persistent walkers are killed after 1 MC sweeps
  BranchInterval = 1
  Steps per block = 400
  Number of blocks = 300

  DMC Engine Initialization = 0.005581855774 secs

 Warmup is completed after 400

  TauEff     = 0.002498763183
 TauEff/Tau = 0.9995052733
  Etrial     = -18.47517453
 Running average of energy = -18.4680182
                  Variance = 0.06521262007
branch cutoff = 10 15
====================================================
  SimpleFixedNodeBranch::finalize after a DMC block
    QMC counter                   = 25
    time step                     = 0.0025
    effective time step           = 0.00249878
    trial energy                  = -18.4658
    reference energy              = -18.4678
    reference variance            = 0.0652126
    target walkers                = 4096
    branch cutoff                 = 10 15
    Max and minimum walkers per node= 9 1
    Feedback                      = 1
    QMC Status (BranchMode)       = 0000001111
====================================================
  QMC Execution time = 4135 secs
  Total Execution time = 6975 secs

=========================================================
  A new xml input file : Kr.log.s025.cont.xml
TACC:  Shutdown complete. Exiting. 
