
 Primary working directories    : /global/cscratch1/sd/aannabe
 Secondary working directories  : /global/cscratch1/sd/aannabe
 Wavefunction directory         : /global/homes/a/aannabe/wfu/
 Main file repository           : /global/cscratch1/sd/aannabe/

 SHA1      : 19cd028119e0e09f93f0674bd8af7968d9b3eff6
 NAME      : 2015.1.36
 ARCHNAME  : linux/x86_64
 FC        : /opt/cray/pe/craype/2.5.14/bin/ftn
 BLASLIB   : -L/opt/intel/compilers_and_libraries_2018.1.163/linux/mkl/lib/intel64 -Wl,-_start-group -lmkl_intel_ilp64 -lmkl_intel_thread -lmkl_core -Wl,-_end-group -liomp5
 id        : lbl

 Nodes     nprocs
 nid00521     1

 Using customized tuning parameters: mindgm=7; mindgv=16; mindgc=1; mindgr=1; noblas=0; minvec=7
 default implementation of scratch files=df  

 ***,Cl
 memory,512,m
 gthresh,twoint=1.e-12
 
 gprint,basis,orbitals
 gexpec,ekin,pot
 
 angstrom
 geometry={
 1                                                                               ! Number of atoms
 Cl 0.0 0.0 0.0
 }
 
 basis={
 Including file /global/homes/a/aannabe/repos/pseudopotentiallibrary/recipes/Cl/ccECP_He_core/Cl.ccECP.molpro
 Including file /global/homes/a/aannabe/repos/pseudopotentiallibrary/recipes/Cl/ccECP_He_core/cc-pCVTZ.molpro
 }
 
 {hf
  wf,15,3,1
  occ,2,2,2,0,2,0,0,0
  closed,2,2,1,0,2,0,0,0
                                                                                 !open,2.3
 }
 scf(i)=energy
 
 _CC_NORM_MAX=2.0
 {ci
 maxit,100
 core
 }
 posthf(i)=energy
 
 table,scf,posthf,ekin,pot
 save,3.csv,new
 
 

 Variables initialized (889), CPU time= 0.00 sec
 Commands  initialized (702), CPU time= 0.01 sec, 572 directives.
 Default parameters read. Elapsed time= 0.16 sec

 Checking input...
 Passed
1


                                         ***  PROGRAM SYSTEM MOLPRO  ***
                                       Copyright, TTI GmbH Stuttgart, 2015
                                    Version 2015.1 linked Dec 29 2018 15:55:43


 **********************************************************************************************************************************
 LABEL *   Cl                                                                            
  64 bit serial version                                                                  DATE: 03-Jan-19          TIME: 20:57:33  
 **********************************************************************************************************************************

 SHA1:             19cd028119e0e09f93f0674bd8af7968d9b3eff6
 **********************************************************************************************************************************

 THRESHOLDS:

 ZERO    =  1.00D-12  ONEINT  =  1.00D-12  TWOINT  =  1.00D-12  PREFAC  =  1.00D-14  LOCALI  =  1.00D-09  EORDER  =  1.00D-04
 ENERGY  =  0.00D+00  ETEST   =  0.00D+00  EDENS   =  0.00D+00  THRDEDEF=  1.00D-06  GRADIENT=  1.00D-02  STEP    =  1.00D-03
 ORBITAL =  1.00D-05  CIVEC   =  1.00D-05  COEFF   =  1.00D-04  PRINTCI =  5.00D-02  PUNCHCI =  9.90D+01  OPTGRAD =  3.00D-04
 OPTENERG=  1.00D-06  OPTSTEP =  3.00D-04  THRGRAD =  1.00D-10  COMPRESS=  1.00D-11  VARMIN  =  1.00D-07  VARMAX  =  1.00D-03
 THRDOUB =  0.00D+00  THRDIV  =  1.00D-05  THRRED  =  1.00D-07  THRPSP  =  1.00D+00  THRDC   =  1.00D-10  THRCS   =  1.00D-10
 THRNRM  =  1.00D-08  THREQ   =  0.00D+00  THRDE   =  1.00D+00  THRREF  =  1.00D-05  SPARFAC =  1.00D+00  THRDLP  =  1.00D-07
 THRDIA  =  1.00D-10  THRDLS  =  1.00D-07  THRGPS  =  0.00D+00  THRKEX  =  0.00D+00  THRDIS  =  2.00D-01  THRVAR  =  1.00D-10
 THRLOC  =  1.00D-06  THRGAP  =  1.00D-06  THRLOCT = -1.00D+00  THRGAPT = -1.00D+00  THRORB  =  1.00D-06  THRMLTP =  0.00D+00
 THRCPQCI=  1.00D-10  KEXTA   =  0.00D+00  THRCOARS=  0.00D+00  SYMTOL  =  1.00D-06  GRADTOL =  1.00D-06  THROVL  =  1.00D-08
 THRORTH =  1.00D-08  GRID    =  1.00D-06  GRIDMAX =  1.00D-03  DTMAX   =  0.00D+00  THROCCDE=  1.00D-01  THROCCDE=  1.00D-01



 ZUNIT=ANG
 

Geometry recognized as XYZ


 Variable memory set to  512000000 words,  buffer space   230000 words

 SETTING BASIS          =    USERDEF


 Recomputing integrals since basis changed


 Using spherical harmonics



 PROGRAM * SEWARD (Integral evaluation for generally contracted gaussian basis sets)     Author: Roland Lindh, 1990

 Geometry written to block  1 of record 700

 Orientation using atomic masses  
 Molecule type: Atom
 Symmetry elements: X,Y,Z
 Rotational constants:       0.0000000      0.0000000      0.0000000 GHz  (calculated with average atomic masses)

 Point group  D2h 



 ATOMIC COORDINATES

 NR  ATOM    CHARGE       X              Y              Z

   1  CL      7.00    0.000000000    0.000000000    0.000000000


          CL  CORE POTENTIAL

          d POTENTIAL

 POWERS             1              3              2              1              1
 EXPONENTIALS   22.19627       26.14512       25.01512       0.000000       0.000000    
 COEFFICIENTS   15.00000       332.9440      -162.0000       7.000000      -15.00000    

          s - d POTENTIAL

 POWERS             2              2
 EXPONENTIALS   124.6404       52.20543    
 COEFFICIENTS   26.83736       277.2967    

          p - d POTENTIAL

 POWERS             2
 EXPONENTIALS   1.000000    
 COEFFICIENTS   0.000000    


 BASIS DATA

   Nr Sym  Nuc  Type         Exponents   Contraction coefficients

    1.1 Ag    1  1s         352.930099     0.000043    0.000023
    2.1 Ag                  170.036562    -0.000705   -0.000003
                             81.921130     0.023209   -0.006748
                             39.468403    -0.165085    0.055658
                             19.015299    -0.077480    0.025309
                              9.161293     0.225544   -0.081840
                              4.413777     0.552801   -0.278453
                              2.126493     0.349034   -0.308794
                              1.024513     0.035803    0.120581
                              0.493596     0.005039    0.535710
                              0.237807    -0.000972    0.459940
                              0.114572     0.000560    0.128297
    3.1 Ag    1  1s          16.747115     1.000000
    4.1 Ag    1  1s           3.192922     1.000000
    5.1 Ag    1  1s           1.100988     1.000000
    6.1 Ag    1  1s           0.182106     1.000000
    7.1 Ag    1  3d0         18.412564     1.000000
    8.1 Ag    1  3d2+        18.412564     1.000000
    9.1 Ag    1  3d0          5.768837     1.000000
   10.1 Ag    1  3d2+         5.768837     1.000000
   11.1 Ag    1  3d0          1.014724     1.000000
   12.1 Ag    1  3d2+         1.014724     1.000000
   13.1 Ag    1  3d0          0.332648     1.000000
   14.1 Ag    1  3d2+         0.332648     1.000000
    1.2 B3u   1  2px         68.625610     0.012029    0.003357
    2.2 B3u                  36.209284     0.091549    0.024632
                             19.105291     0.173813    0.047226
                             10.080623     0.269317    0.078162
                              5.318891     0.321612    0.098932
                              2.806434     0.230908    0.069537
                              1.480773     0.073834   -0.071607
                              0.781308     0.008057   -0.254488
                              0.412246     0.001346   -0.345485
                              0.217515     0.000475   -0.308020
                              0.114769     0.000280   -0.158909
                              0.060556     0.000042   -0.036181
    3.2 B3u   1  2px          8.562192     1.000000
    4.2 B3u   1  2px          3.450930     1.000000
    5.2 B3u   1  2px          1.026717     1.000000
    6.2 B3u   1  2px          0.138738     1.000000
    7.2 B3u   1  4f1+        12.164686     1.000000
    8.2 B3u   1  4f3+        12.164686     1.000000
    9.2 B3u   1  4f1+         0.702236     1.000000
   10.2 B3u   1  4f3+         0.702236     1.000000
    1.3 B2u   1  2py         68.625610     0.012029    0.003357
    2.3 B2u                  36.209284     0.091549    0.024632
                             19.105291     0.173813    0.047226
                             10.080623     0.269317    0.078162
                              5.318891     0.321612    0.098932
                              2.806434     0.230908    0.069537
                              1.480773     0.073834   -0.071607
                              0.781308     0.008057   -0.254488
                              0.412246     0.001346   -0.345485
                              0.217515     0.000475   -0.308020
                              0.114769     0.000280   -0.158909
                              0.060556     0.000042   -0.036181
    3.3 B2u   1  2py          8.562192     1.000000
    4.3 B2u   1  2py          3.450930     1.000000
    5.3 B2u   1  2py          1.026717     1.000000
    6.3 B2u   1  2py          0.138738     1.000000
    7.3 B2u   1  4f1-        12.164686     1.000000
    8.3 B2u   1  4f3-        12.164686     1.000000
    9.3 B2u   1  4f1-         0.702236     1.000000
   10.3 B2u   1  4f3-         0.702236     1.000000
    1.4 B1g   1  3d2-        18.412564     1.000000
    2.4 B1g   1  3d2-         5.768837     1.000000
    3.4 B1g   1  3d2-         1.014724     1.000000
    4.4 B1g   1  3d2-         0.332648     1.000000
    1.5 B1u   1  2pz         68.625610     0.012029    0.003357
    2.5 B1u                  36.209284     0.091549    0.024632
                             19.105291     0.173813    0.047226
                             10.080623     0.269317    0.078162
                              5.318891     0.321612    0.098932
                              2.806434     0.230908    0.069537
                              1.480773     0.073834   -0.071607
                              0.781308     0.008057   -0.254488
                              0.412246     0.001346   -0.345485
                              0.217515     0.000475   -0.308020
                              0.114769     0.000280   -0.158909
                              0.060556     0.000042   -0.036181
    3.5 B1u   1  2pz          8.562192     1.000000
    4.5 B1u   1  2pz          3.450930     1.000000
    5.5 B1u   1  2pz          1.026717     1.000000
    6.5 B1u   1  2pz          0.138738     1.000000
    7.5 B1u   1  4f0         12.164686     1.000000
    8.5 B1u   1  4f2+        12.164686     1.000000
    9.5 B1u   1  4f0          0.702236     1.000000
   10.5 B1u   1  4f2+         0.702236     1.000000
    1.6 B2g   1  3d1+        18.412564     1.000000
    2.6 B2g   1  3d1+         5.768837     1.000000
    3.6 B2g   1  3d1+         1.014724     1.000000
    4.6 B2g   1  3d1+         0.332648     1.000000
    1.7 B3g   1  3d1-        18.412564     1.000000
    2.7 B3g   1  3d1-         5.768837     1.000000
    3.7 B3g   1  3d1-         1.014724     1.000000
    4.7 B3g   1  3d1-         0.332648     1.000000
    1.8 Au    1  4f2-        12.164686     1.000000
    2.8 Au    1  4f2-         0.702236     1.000000

 NUCLEAR CHARGE:                    7
 NUMBER OF PRIMITIVE AOS:         108
 NUMBER OF SYMMETRY AOS:           98
 NUMBER OF CONTRACTIONS:           58   (  14Ag  +  10B3u +  10B2u +   4B1g +  10B1u +   4B2g +   4B3g +   2Au  )
 NUMBER OF CORE ORBITALS:           0   (   0Ag  +   0B3u +   0B2u +   0B1g +   0B1u +   0B2g +   0B3g +   0Au  )
 NUMBER OF VALENCE ORBITALS:        4   (   1Ag  +   1B3u +   1B2u +   0B1g +   1B1u +   0B2g +   0B3g +   0Au  )


 NUCLEAR REPULSION ENERGY    0.00000000

 EXTRA SYMMETRY OF AOS IN SYMMETRY 1:   1 1 1 1 1 1 2 3 2 3   2 3 2 3
 EXTRA SYMMETRY OF AOS IN SYMMETRY 2:   1 1 1 1 1 1 2 3 2 3
 EXTRA SYMMETRY OF AOS IN SYMMETRY 3:   1 1 1 1 1 1 2 3 2 3
 EXTRA SYMMETRY OF AOS IN SYMMETRY 5:   1 1 1 1 1 1 2 3 2 3

 Eigenvalues of metric

         1 0.385E-02 0.861E-02 0.135E+00 0.298E+00 0.298E+00 0.497E+00 0.497E+00 0.552E+00
         2 0.117E-01 0.258E-01 0.133E+00 0.599E+00 0.971E+00 0.971E+00 0.103E+01 0.103E+01
         3 0.117E-01 0.258E-01 0.133E+00 0.599E+00 0.971E+00 0.971E+00 0.103E+01 0.103E+01
         4 0.298E+00 0.497E+00 0.139E+01 0.182E+01
         5 0.117E-01 0.258E-01 0.133E+00 0.599E+00 0.971E+00 0.971E+00 0.103E+01 0.103E+01
         6 0.298E+00 0.497E+00 0.139E+01 0.182E+01
         7 0.298E+00 0.497E+00 0.139E+01 0.182E+01
         8 0.971E+00 0.103E+01


 Contracted 2-electron integrals neglected if value below      1.0D-12
 AO integral compression algorithm  1   Integral accuracy      1.0D-12

     2.359 MB (compressed) written to integral file ( 74.5%)


 NUMBER OF SORTED TWO-ELECTRON INTEGRALS:     203904.     BUFFER LENGTH:  32768
 NUMBER OF SEGMENTS:   1  SEGMENT LENGTH:     203904      RECORD LENGTH: 524288

 Memory used in sort:       0.76 MW

 SORT1 READ      417520. AND WROTE      167428. INTEGRALS IN      1 RECORDS. CPU TIME:     0.01 SEC, REAL TIME:     0.03 SEC
 SORT2 READ      167428. AND WROTE      203904. INTEGRALS IN      9 RECORDS. CPU TIME:     0.04 SEC, REAL TIME:     0.07 SEC

 FILE SIZES:   FILE 1:    22.3 MBYTE,  FILE 4:     4.2 MBYTE,   TOTAL:     26.6 MBYTE

 OPERATOR DM      FOR CENTER  0  COORDINATES:    0.000000    0.000000    0.000000
 OPERATOR EKIN    FOR CENTER  0  COORDINATES:    0.000000    0.000000    0.000000
 OPERATOR POT     FOR CENTER  0  COORDINATES:    0.000000    0.000000    0.000000


 **********************************************************************************************************************************
 DATASETS  * FILE   NREC   LENGTH (MB)   RECORD NAMES
              1      20       21.11       500      610      700      900      950      970     1000      129      960     1100   
                                          VAR    BASINP    GEOM    SYMINP    ZMAT    AOBASIS   BASIS     P2S    ABASIS      S 
                                         1400     1410     1420     1200     1210     1080     1600     1650     1300     1700   
                                         EKIN       V       ECP      H0       H01     AOSYM     SMH    MOLCAS    ERIS     OPER   

 PROGRAMS   *        TOTAL       INT
 CPU TIMES  *         0.71      0.57
 REAL TIME  *         4.87 SEC
 DISK USED  *        26.83 MB      
 **********************************************************************************************************************************


 PROGRAM * RHF-SCF (OPEN SHELL)       Authors: W. Meyer, H.-J. Werner


 NUMBER OF ELECTRONS:       8+    7-    SPACE SYMMETRY=3    SPIN SYMMETRY: Doublet 
 CONVERGENCE THRESHOLDS:    1.00E-05 (Density)    1.00E-07 (Energy)
 MAX. NUMBER OF ITERATIONS:       60
 INTERPOLATION TYPE:            DIIS
 INTERPOLATION STEPS:              2 (START)      1 (STEP)
 LEVEL SHIFTS:                 -0.60 (CLOSED) -0.30 (OPEN) 

 Number of closed-shell orbitals:    7 (   2   2   1   0   2   0   0   0 )
 Number of open-shell orbitals:      1 (   0   0   1   0   0   0   0   0 )



   Atom=CL basis=ECP10MWB_GUESS    lmin=0  lmax=1

 Orbital guess generated from atomic densities. Full valence occupancy:    1   1   1   0   1   0   0   0


 Molecular orbital dump at record        2100.2

 ITERATION    DDIFF          GRAD             ENERGY        2-EL.EN.            DIPOLE MOMENTS         DIIS   ORB.
    1      0.000D+00      0.000D+00      -160.19359790    314.182215    0.00000    0.00000    0.00000    0    start
    2      0.000D+00      0.123D+01      -178.40305712    174.098222    0.00000    0.00000    0.00000    1    diag,B
    3      0.749D+00      0.413D+00      -181.52519789    210.571155    0.00000    0.00000    0.00000    2    diag,B
    4      0.231D+00      0.493D-01      -181.60417974    211.909711    0.00000    0.00000    0.00000    3    diag,B
    5      0.733D-01      0.112D-01      -181.61365463    212.196796    0.00000    0.00000    0.00000    4    diag,B
    6      0.352D-01      0.271D-02      -181.61458976    212.396517    0.00000    0.00000    0.00000    5    diag,B
    7      0.134D-01      0.557D-03      -181.61463771    212.435516    0.00000    0.00000    0.00000    6    fixocc
    8      0.309D-02      0.944D-04      -181.61463961    212.430244    0.00000    0.00000    0.00000    7    diag,B
    9      0.415D-03      0.225D-04      -181.61463974    212.429762    0.00000    0.00000    0.00000    8    diag,B
   10      0.822D-04      0.622D-05      -181.61463975    212.430209    0.00000    0.00000    0.00000    9    orth
   11      0.363D-04      0.295D-06      -181.61463975    212.430219    0.00000    0.00000    0.00000    9    diag,B
   12      0.155D-05      0.316D-07      -181.61463975    212.430218    0.00000    0.00000    0.00000    0    orth

 Final alpha occupancy:   2   2   2   0   2   0   0   0
 Final beta  occupancy:   2   2   1   0   2   0   0   0

 !RHF STATE 1.3 Energy               -181.614639753140
 Nuclear energy                         0.00000000
 One-electron energy                 -287.82974888
 Two-electron energy                  106.21510912
 Virial quotient                       -1.26077626
 !RHF STATE 1.3 Dipole moment           0.00000000     0.00000000     0.00000000
 Dipole moment /Debye                   0.00000000     0.00000000     0.00000000
 

 !RHF expec          <1.3|EKIN|1.3>   144.049856717754
 
 !RHF expec           <1.3|POT|1.3>   -29.395924302867

 ELECTRON ORBITALS
 =================


   Orb  Occ    Energy  Couls-En    Coefficients

                                   1 1s      1 1s      1 1s      1 1s      1 1s      1 1s      1 3d0     1 3d2+    1 3d0     1 3d2+ 
                                   1 3d0     1 3d2+    1 3d0     1 3d2+ 

   1.1   2   -10.6938  -39.6436  0.999969  0.000004 -0.000007  0.000044 -0.000011  0.000002  0.000021  0.000036 -0.000409 -0.000709
                                -0.000229 -0.000397  0.000170  0.000294

   2.1   2    -1.0810  -11.2161  0.000070  1.000133  0.000005  0.000009 -0.000049 -0.000135 -0.000039 -0.000068  0.000121  0.000209
                                 0.000036  0.000063  0.002351  0.004072

                                   1 2px     1 2px     1 2px     1 2px     1 2px     1 2px     1 4f1+    1 4f3+    1 4f1+    1 4f3+ 


   1.2   2    -8.2184  -35.9477  1.001001  0.001106  0.000123 -0.000776 -0.000841 -0.000183 -0.000049 -0.000191 -0.000037 -0.000143

   2.2   2    -0.4911   -9.1302  0.000524  0.987718  0.000181 -0.000140 -0.003117 -0.012224  0.000002  0.000009  0.001501  0.005812

                                   1 2py     1 2py     1 2py     1 2py     1 2py     1 2py     1 4f1-    1 4f3-    1 4f1-    1 4f3- 


   1.3   2    -8.2218  -35.9334  0.997989  0.001602 -0.000239  0.001550  0.001687  0.000343 -0.000148 -0.000191 -0.000116 -0.000150

   2.3   +    -0.5684   -9.3316 -0.010011  1.050515 -0.000846  0.000736  0.012602  0.051055  0.000014  0.000018  0.009850  0.012716

                                   1 2pz     1 2pz     1 2pz     1 2pz     1 2pz     1 2pz     1 4f0     1 4f2+    1 4f0     1 4f2+ 


   1.5   2    -8.2184  -35.9477  1.001001  0.001106  0.000123 -0.000776 -0.000841 -0.000183 -0.000121 -0.000156 -0.000090 -0.000117

   2.5   2    -0.4911   -9.1302  0.000524  0.987718  0.000181 -0.000140 -0.003117 -0.012224  0.000006  0.000007  0.003676  0.004745

 HOMO      2.2    -0.491070 =     -13.3627eV
 LUMO      3.3     0.489548 =      13.3213eV
 LUMO-HOMO         0.980618 =      26.6840eV


 **********************************************************************************************************************************
 DATASETS  * FILE   NREC   LENGTH (MB)   RECORD NAMES
              1      20       21.11       500      610      700      900      950      970     1000      129      960     1100   
                                          VAR    BASINP    GEOM    SYMINP    ZMAT    AOBASIS   BASIS     P2S    ABASIS      S 
                                         1400     1410     1420     1200     1210     1080     1600     1650     1300     1700   
                                         EKIN       V       ECP      H0       H01     AOSYM     SMH    MOLCAS    ERIS     OPER   

              2       4        2.77       700     1000      520     2100   
                                         GEOM     BASIS   MCVARS     RHF  

 PROGRAMS   *        TOTAL        HF       INT
 CPU TIMES  *         0.79      0.08      0.57
 REAL TIME  *         5.15 SEC
 DISK USED  *        26.83 MB      
 **********************************************************************************************************************************
 SETTING SCF(I)         =      -181.61463975  AU                              
 SETTING _CC_NORM_MAX   =         2.00000000                                  


 PROGRAM * CI (Multireference internally contracted CI)     Authors: H.-J. Werner, P.J. Knowles, 1987


 Convergence thresholds:  THRVAR = 1.00D-08  THRDEN = 1.00D-06

 Number of optimized states:  1  Roots:   1
 Number of reference states:  1  Roots:   1

 Reference symmetry:                   3   Doublet 
 Number of electrons:                 15
 Maximum number of shells:             3
 Maximum number of spin couplings:     5

 Reference space:        1 conf        1 CSFs
 N elec internal:        8 conf        8 CSFs
 N-1 el internal:       36 conf       64 CSFs
 N-2 el internal:       35 conf      133 CSFs

 Number of electrons in valence space:                     15
 Maximum number of open shell orbitals in reference space:  1
 Maximum number of open shell orbitals in internal spaces:  5


 Number of closed-shell orbitals:   7 (   2   2   1   0   2   0   0   0 )
 Number of active  orbitals:        1 (   0   0   1   0   0   0   0   0 )
 Number of external orbitals:      50 (  12   8   8   4   8   4   4   2 )

 Molecular orbitals read from record     2100.2  Type=RHF/CANONICAL (state 1.3)

 Integral transformation finished. Total CPU:   0.00 sec, npass=  1  Memory used:   0.08 MW

 Number of p-space configurations:   1

 Reference wavefunction optimized for reference space (refopt=1)

 State     Reference Energy 
   1        -181.61463975

 Number of blocks in overlap matrix:    63   Smallest eigenvalue:  0.10D+01
 Number of N-2 electron functions:      63
 Number of N-1 electron functions:      64

 Number of internal configurations:                    2
 Number of singly external configurations:           432
 Number of doubly external configurations:         10573
 Total number of contracted configurations:        11007
 Total number of uncontracted configurations:      22357

 Diagonal Coupling coefficients finished.               Storage:    6344 words, CPU-Time:      0.00 seconds.
 Energy denominators for pairs finished in 1 passes.    Storage:   11303 words, CPU-time:      0.00 seconds.

  ITER. STATE  ROOT     SQ.NORM     CORR.ENERGY   TOTAL ENERGY   ENERGY CHANGE       DEN1      VAR(S)    VAR(P)      TIME
    1     1     1     1.00000000     0.00000000  -181.61463975    -0.00000000    -0.51199985  0.18D-01  0.81D-01     0.02
    2     1     1     1.07605553    -0.44832726  -182.06296701    -0.44832726    -0.00950686  0.11D-02  0.18D-02     0.04
    3     1     1     1.06218322    -0.45707566  -182.07171541    -0.00874840    -0.00006203  0.35D-05  0.98D-05     0.06
    4     1     1     1.06197509    -0.45713852  -182.07177827    -0.00006286    -0.00000095  0.20D-06  0.13D-06     0.08
    5     1     1     1.06203985    -0.45713953  -182.07177929    -0.00000101    -0.00000002  0.37D-08  0.35D-08     0.09
    6     1     1     1.06204451    -0.45713956  -182.07177931    -0.00000003    -0.00000000  0.95D-10  0.75D-10     0.11


 =====================================
 Analysis of CPU times by interactions
 =====================================

       I      S      P

 I   0.0%
 S   0.0%   9.1%
 P   0.0%  18.2%  18.2%

 Initialization:  18.2%
 Other:           36.4%

 Total CPU:        0.1 seconds
 =====================================



 Reference coefficients greater than 0.0500000
 =============================================
 22222/22           0.9703502



 RESULTS FOR STATE 1.3
 =====================

 Coefficient of reference function:   C(0) = 0.97035025 (fixed)   0.97035025 (relaxed)

 Energy contributions of configuration classes

 CLASS          SQ.NORM        ECORR1        ECORR2
 +++++++++++++++++++++++++++++++++++++++++++++++++++
 Internals    0.00000055   -0.00000000   -0.00000024
 Singles      0.01009742   -0.02659734   -0.02938989
 Pairs        0.05194713   -0.43054222   -0.42774943
 Total        1.06204509   -0.45713956   -0.45713956
 +++++++++++++++++++++++++++++++++++++++++++++++++++


 Reference energy                    -181.61463975
 Nuclear energy                         0.00000000
 Kinetic energy                       144.43150145
 One electron energy                 -287.61099932
 Two electron energy                  105.53922000
 Virial quotient                       -1.26060989
 Correlation energy                    -0.45713956
 !CI(SD) STATE 1.3 Energy            -182.071779312122

 Properties without orbital relaxation:

 !CI(SD) STATE 1.3 Dipole moment        0.00000000     0.00000000     0.00000000
 Dipole moment /Debye                   0.00000000     0.00000000     0.00000000

 Cluster corrected energies          -182.10014258 (Davidson, fixed reference)
 Cluster corrected energies          -182.10014258 (Davidson, relaxed reference)

 Cluster corrected energies          -182.09720496 (Pople, fixed reference)
 Cluster corrected energies          -182.09720496 (Pople, relaxed reference)

 

 !CI(SD) expec       <1.3|EKIN|1.3>   144.431501448586
 
 !CI(SD) expec        <1.3|POT|1.3>   -29.407564078214


 **********************************************************************************************************************************
 DATASETS  * FILE   NREC   LENGTH (MB)   RECORD NAMES
              1      21       21.35       500      610      700      900      950      970     1000      129      960     1100   
                                          VAR    BASINP    GEOM    SYMINP    ZMAT    AOBASIS   BASIS     P2S    ABASIS      S 
                                         1400     1410     1420     1200     1210     1080     1600     1650     1300     1700   
                                         EKIN       V       ECP      H0       H01     AOSYM     SMH    MOLCAS    ERIS     OPER   
                                         1380   
                                         JKOP   

              2       4        2.77       700     1000      520     2100   
                                         GEOM     BASIS   MCVARS     RHF  

 PROGRAMS   *        TOTAL        CI        HF       INT
 CPU TIMES  *         0.96      0.16      0.08      0.57
 REAL TIME  *         7.13 SEC
 DISK USED  *        26.83 MB      
 **********************************************************************************************************************************
 SETTING POSTHF(I)      =      -182.07177931  AU                              
                                                                                                                                                                                                                                                                

         SCF            POSTHF        EKIN          POT
    -181.6146398   -182.0717793   144.4315014   -29.40756408
                                                  

 CI/USERDEF energy=   -182.071779312122

        CI              HF-SCF  
   -182.07177931   -181.61463975
 **********************************************************************************************************************************
 Molpro calculation terminated
 Variable memory released
