
 Primary working directories    : /global/cscratch1/sd/aannabe
 Secondary working directories  : /global/cscratch1/sd/aannabe
 Wavefunction directory         : /global/homes/a/aannabe/wfu/
 Main file repository           : /global/cscratch1/sd/aannabe/

 SHA1      : 19cd028119e0e09f93f0674bd8af7968d9b3eff6
 NAME      : 2015.1.36
 ARCHNAME  : linux/x86_64
 FC        : /opt/cray/pe/craype/2.5.14/bin/ftn
 BLASLIB   : -L/opt/intel/compilers_and_libraries_2018.1.163/linux/mkl/lib/intel64 -Wl,-_start-group -lmkl_intel_ilp64 -lmkl_intel_thread -lmkl_core -Wl,-_end-group -liomp5
 id        : lbl

 Nodes     nprocs
 nid00521     1

 Using customized tuning parameters: mindgm=7; mindgv=16; mindgc=1; mindgr=1; noblas=0; minvec=7
 default implementation of scratch files=df  

 ***,Cl
 memory,512,m
 gthresh,twoint=1.e-12
 
 gprint,basis,orbitals
 gexpec,ekin,pot
 
 angstrom
 geometry={
 1                                                                               ! Number of atoms
 Cl 0.0 0.0 0.0
 }
 
 basis={
 Including file /global/homes/a/aannabe/repos/pseudopotentiallibrary/recipes/Cl/ccECP_He_core/Cl.ccECP.molpro
 Including file /global/homes/a/aannabe/repos/pseudopotentiallibrary/recipes/Cl/ccECP_He_core/cc-pCV5Z.molpro
 }
 
 {hf
  wf,15,3,1
  occ,2,2,2,0,2,0,0,0
  closed,2,2,1,0,2,0,0,0
                                                                                 !open,2.3
 }
 scf(i)=energy
 
 _CC_NORM_MAX=2.0
 {ci
 maxit,100
 core
 }
 posthf(i)=energy
 
 table,scf,posthf,ekin,pot
 save,5.csv,new
 
 

 Variables initialized (889), CPU time= 0.00 sec
 Commands  initialized (702), CPU time= 0.02 sec, 572 directives.
 Default parameters read. Elapsed time= 0.13 sec

 Checking input...
 Passed
1


                                         ***  PROGRAM SYSTEM MOLPRO  ***
                                       Copyright, TTI GmbH Stuttgart, 2015
                                    Version 2015.1 linked Dec 29 2018 15:55:43


 **********************************************************************************************************************************
 LABEL *   Cl                                                                            
  64 bit serial version                                                                  DATE: 03-Jan-19          TIME: 20:59:32  
 **********************************************************************************************************************************

 SHA1:             19cd028119e0e09f93f0674bd8af7968d9b3eff6
 **********************************************************************************************************************************

 THRESHOLDS:

 ZERO    =  1.00D-12  ONEINT  =  1.00D-12  TWOINT  =  1.00D-12  PREFAC  =  1.00D-14  LOCALI  =  1.00D-09  EORDER  =  1.00D-04
 ENERGY  =  0.00D+00  ETEST   =  0.00D+00  EDENS   =  0.00D+00  THRDEDEF=  1.00D-06  GRADIENT=  1.00D-02  STEP    =  1.00D-03
 ORBITAL =  1.00D-05  CIVEC   =  1.00D-05  COEFF   =  1.00D-04  PRINTCI =  5.00D-02  PUNCHCI =  9.90D+01  OPTGRAD =  3.00D-04
 OPTENERG=  1.00D-06  OPTSTEP =  3.00D-04  THRGRAD =  1.00D-10  COMPRESS=  1.00D-11  VARMIN  =  1.00D-07  VARMAX  =  1.00D-03
 THRDOUB =  0.00D+00  THRDIV  =  1.00D-05  THRRED  =  1.00D-07  THRPSP  =  1.00D+00  THRDC   =  1.00D-10  THRCS   =  1.00D-10
 THRNRM  =  1.00D-08  THREQ   =  0.00D+00  THRDE   =  1.00D+00  THRREF  =  1.00D-05  SPARFAC =  1.00D+00  THRDLP  =  1.00D-07
 THRDIA  =  1.00D-10  THRDLS  =  1.00D-07  THRGPS  =  0.00D+00  THRKEX  =  0.00D+00  THRDIS  =  2.00D-01  THRVAR  =  1.00D-10
 THRLOC  =  1.00D-06  THRGAP  =  1.00D-06  THRLOCT = -1.00D+00  THRGAPT = -1.00D+00  THRORB  =  1.00D-06  THRMLTP =  0.00D+00
 THRCPQCI=  1.00D-10  KEXTA   =  0.00D+00  THRCOARS=  0.00D+00  SYMTOL  =  1.00D-06  GRADTOL =  1.00D-06  THROVL  =  1.00D-08
 THRORTH =  1.00D-08  GRID    =  1.00D-06  GRIDMAX =  1.00D-03  DTMAX   =  0.00D+00  THROCCDE=  1.00D-01  THROCCDE=  1.00D-01



 ZUNIT=ANG
 

Geometry recognized as XYZ


 Variable memory set to  512000000 words,  buffer space   230000 words

 SETTING BASIS          =    USERDEF


 Recomputing integrals since basis changed


 Using spherical harmonics



 PROGRAM * SEWARD (Integral evaluation for generally contracted gaussian basis sets)     Author: Roland Lindh, 1990

 Geometry written to block  1 of record 700

 Orientation using atomic masses  
 Molecule type: Atom
 Symmetry elements: X,Y,Z
 Rotational constants:       0.0000000      0.0000000      0.0000000 GHz  (calculated with average atomic masses)

 Point group  D2h 



 ATOMIC COORDINATES

 NR  ATOM    CHARGE       X              Y              Z

   1  CL      7.00    0.000000000    0.000000000    0.000000000


          CL  CORE POTENTIAL

          d POTENTIAL

 POWERS             1              3              2              1              1
 EXPONENTIALS   22.19627       26.14512       25.01512       0.000000       0.000000    
 COEFFICIENTS   15.00000       332.9440      -162.0000       7.000000      -15.00000    

          s - d POTENTIAL

 POWERS             2              2
 EXPONENTIALS   124.6404       52.20543    
 COEFFICIENTS   26.83736       277.2967    

          p - d POTENTIAL

 POWERS             2
 EXPONENTIALS   1.000000    
 COEFFICIENTS   0.000000    


 BASIS DATA

   Nr Sym  Nuc  Type         Exponents   Contraction coefficients

    1.1 Ag    1  1s         352.930099     0.000043    0.000023
    2.1 Ag                  170.036562    -0.000705   -0.000003
                             81.921130     0.023209   -0.006748
                             39.468403    -0.165085    0.055658
                             19.015299    -0.077480    0.025309
                              9.161293     0.225544   -0.081840
                              4.413777     0.552801   -0.278453
                              2.126493     0.349034   -0.308794
                              1.024513     0.035803    0.120581
                              0.493596     0.005039    0.535710
                              0.237807    -0.000972    0.459940
                              0.114572     0.000560    0.128297
    3.1 Ag    1  1s          77.019384     1.000000
    4.1 Ag    1  1s          37.315285     1.000000
    5.1 Ag    1  1s          18.078962     1.000000
    6.1 Ag    1  1s           8.759115     1.000000
    7.1 Ag    1  1s           1.806198     1.000000
    8.1 Ag    1  1s           0.795302     1.000000
    9.1 Ag    1  1s           0.350186     1.000000
   10.1 Ag    1  1s           0.154193     1.000000
   11.1 Ag    1  3d0         47.749735     1.000000
   12.1 Ag    1  3d2+        47.749735     1.000000
   13.1 Ag    1  3d0         24.927883     1.000000
   14.1 Ag    1  3d2+        24.927883     1.000000
   15.1 Ag    1  3d0         13.013672     1.000000
   16.1 Ag    1  3d2+        13.013672     1.000000
   17.1 Ag    1  3d0          6.793824     1.000000
   18.1 Ag    1  3d2+         6.793824     1.000000
   19.1 Ag    1  3d0          3.675177     1.000000
   20.1 Ag    1  3d2+         3.675177     1.000000
   21.1 Ag    1  3d0          1.485730     1.000000
   22.1 Ag    1  3d2+         1.485730     1.000000
   23.1 Ag    1  3d0          0.600622     1.000000
   24.1 Ag    1  3d2+         0.600622     1.000000
   25.1 Ag    1  3d0          0.242808     1.000000
   26.1 Ag    1  3d2+         0.242808     1.000000
   27.1 Ag    1  5g0         24.314581     1.000000
   28.1 Ag    1  5g4+        24.314581     1.000000
   29.1 Ag    1  5g2+        24.314581     1.000000
   30.1 Ag    1  5g0          9.346740     1.000000
   31.1 Ag    1  5g4+         9.346740     1.000000
   32.1 Ag    1  5g2+         9.346740     1.000000
   33.1 Ag    1  5g0          1.271583     1.000000
   34.1 Ag    1  5g4+         1.271583     1.000000
   35.1 Ag    1  5g2+         1.271583     1.000000
   36.1 Ag    1  5g0          0.546359     1.000000
   37.1 Ag    1  5g4+         0.546359     1.000000
   38.1 Ag    1  5g2+         0.546359     1.000000
    1.2 B3u   1  2px         68.625610     0.012029    0.003357
    2.2 B3u                  36.209284     0.091549    0.024632
                             19.105291     0.173813    0.047226
                             10.080623     0.269317    0.078162
                              5.318891     0.321612    0.098932
                              2.806434     0.230908    0.069537
                              1.480773     0.073834   -0.071607
                              0.781308     0.008057   -0.254488
                              0.412246     0.001346   -0.345485
                              0.217515     0.000475   -0.308020
                              0.114769     0.000280   -0.158909
                              0.060556     0.000042   -0.036181
    3.2 B3u   1  2px         47.932276     1.000000
    4.2 B3u   1  2px         23.281228     1.000000
    5.2 B3u   1  2px         11.307945     1.000000
    6.2 B3u   1  2px          5.492392     1.000000
    7.2 B3u   1  2px          1.492303     1.000000
    8.2 B3u   1  2px          0.593602     1.000000
    9.2 B3u   1  2px          0.236120     1.000000
   10.2 B3u   1  2px          0.093923     1.000000
   11.2 B3u   1  4f1+        29.426738     1.000000
   12.2 B3u   1  4f3+        29.426738     1.000000
   13.2 B3u   1  4f1+        12.277501     1.000000
   14.2 B3u   1  4f3+        12.277501     1.000000
   15.2 B3u   1  4f1+         5.122451     1.000000
   16.2 B3u   1  4f3+         5.122451     1.000000
   17.2 B3u   1  4f1+         1.326315     1.000000
   18.2 B3u   1  4f3+         1.326315     1.000000
   19.2 B3u   1  4f1+         0.646284     1.000000
   20.2 B3u   1  4f3+         0.646284     1.000000
   21.2 B3u   1  4f1+         0.314920     1.000000
   22.2 B3u   1  4f3+         0.314920     1.000000
   23.2 B3u   1  6h1+        18.451802     1.000000
   24.2 B3u   1  6h3+        18.451802     1.000000
   25.2 B3u   1  6h5+        18.451802     1.000000
   26.2 B3u   1  6h1+         1.046829     1.000000
   27.2 B3u   1  6h3+         1.046829     1.000000
   28.2 B3u   1  6h5+         1.046829     1.000000
    1.3 B2u   1  2py         68.625610     0.012029    0.003357
    2.3 B2u                  36.209284     0.091549    0.024632
                             19.105291     0.173813    0.047226
                             10.080623     0.269317    0.078162
                              5.318891     0.321612    0.098932
                              2.806434     0.230908    0.069537
                              1.480773     0.073834   -0.071607
                              0.781308     0.008057   -0.254488
                              0.412246     0.001346   -0.345485
                              0.217515     0.000475   -0.308020
                              0.114769     0.000280   -0.158909
                              0.060556     0.000042   -0.036181
    3.3 B2u   1  2py         47.932276     1.000000
    4.3 B2u   1  2py         23.281228     1.000000
    5.3 B2u   1  2py         11.307945     1.000000
    6.3 B2u   1  2py          5.492392     1.000000
    7.3 B2u   1  2py          1.492303     1.000000
    8.3 B2u   1  2py          0.593602     1.000000
    9.3 B2u   1  2py          0.236120     1.000000
   10.3 B2u   1  2py          0.093923     1.000000
   11.3 B2u   1  4f1-        29.426738     1.000000
   12.3 B2u   1  4f3-        29.426738     1.000000
   13.3 B2u   1  4f1-        12.277501     1.000000
   14.3 B2u   1  4f3-        12.277501     1.000000
   15.3 B2u   1  4f1-         5.122451     1.000000
   16.3 B2u   1  4f3-         5.122451     1.000000
   17.3 B2u   1  4f1-         1.326315     1.000000
   18.3 B2u   1  4f3-         1.326315     1.000000
   19.3 B2u   1  4f1-         0.646284     1.000000
   20.3 B2u   1  4f3-         0.646284     1.000000
   21.3 B2u   1  4f1-         0.314920     1.000000
   22.3 B2u   1  4f3-         0.314920     1.000000
   23.3 B2u   1  6h1-        18.451802     1.000000
   24.3 B2u   1  6h3-        18.451802     1.000000
   25.3 B2u   1  6h5-        18.451802     1.000000
   26.3 B2u   1  6h1-         1.046829     1.000000
   27.3 B2u   1  6h3-         1.046829     1.000000
   28.3 B2u   1  6h5-         1.046829     1.000000
    1.4 B1g   1  3d2-        47.749735     1.000000
    2.4 B1g   1  3d2-        24.927883     1.000000
    3.4 B1g   1  3d2-        13.013672     1.000000
    4.4 B1g   1  3d2-         6.793824     1.000000
    5.4 B1g   1  3d2-         3.675177     1.000000
    6.4 B1g   1  3d2-         1.485730     1.000000
    7.4 B1g   1  3d2-         0.600622     1.000000
    8.4 B1g   1  3d2-         0.242808     1.000000
    9.4 B1g   1  5g2-        24.314581     1.000000
   10.4 B1g   1  5g4-        24.314581     1.000000
   11.4 B1g   1  5g2-         9.346740     1.000000
   12.4 B1g   1  5g4-         9.346740     1.000000
   13.4 B1g   1  5g2-         1.271583     1.000000
   14.4 B1g   1  5g4-         1.271583     1.000000
   15.4 B1g   1  5g2-         0.546359     1.000000
   16.4 B1g   1  5g4-         0.546359     1.000000
    1.5 B1u   1  2pz         68.625610     0.012029    0.003357
    2.5 B1u                  36.209284     0.091549    0.024632
                             19.105291     0.173813    0.047226
                             10.080623     0.269317    0.078162
                              5.318891     0.321612    0.098932
                              2.806434     0.230908    0.069537
                              1.480773     0.073834   -0.071607
                              0.781308     0.008057   -0.254488
                              0.412246     0.001346   -0.345485
                              0.217515     0.000475   -0.308020
                              0.114769     0.000280   -0.158909
                              0.060556     0.000042   -0.036181
    3.5 B1u   1  2pz         47.932276     1.000000
    4.5 B1u   1  2pz         23.281228     1.000000
    5.5 B1u   1  2pz         11.307945     1.000000
    6.5 B1u   1  2pz          5.492392     1.000000
    7.5 B1u   1  2pz          1.492303     1.000000
    8.5 B1u   1  2pz          0.593602     1.000000
    9.5 B1u   1  2pz          0.236120     1.000000
   10.5 B1u   1  2pz          0.093923     1.000000
   11.5 B1u   1  4f0         29.426738     1.000000
   12.5 B1u   1  4f2+        29.426738     1.000000
   13.5 B1u   1  4f0         12.277501     1.000000
   14.5 B1u   1  4f2+        12.277501     1.000000
   15.5 B1u   1  4f0          5.122451     1.000000
   16.5 B1u   1  4f2+         5.122451     1.000000
   17.5 B1u   1  4f0          1.326315     1.000000
   18.5 B1u   1  4f2+         1.326315     1.000000
   19.5 B1u   1  4f0          0.646284     1.000000
   20.5 B1u   1  4f2+         0.646284     1.000000
   21.5 B1u   1  4f0          0.314920     1.000000
   22.5 B1u   1  4f2+         0.314920     1.000000
   23.5 B1u   1  6h2+        18.451802     1.000000
   24.5 B1u   1  6h4+        18.451802     1.000000
   25.5 B1u   1  6h0         18.451802     1.000000
   26.5 B1u   1  6h2+         1.046829     1.000000
   27.5 B1u   1  6h4+         1.046829     1.000000
   28.5 B1u   1  6h0          1.046829     1.000000
    1.6 B2g   1  3d1+        47.749735     1.000000
    2.6 B2g   1  3d1+        24.927883     1.000000
    3.6 B2g   1  3d1+        13.013672     1.000000
    4.6 B2g   1  3d1+         6.793824     1.000000
    5.6 B2g   1  3d1+         3.675177     1.000000
    6.6 B2g   1  3d1+         1.485730     1.000000
    7.6 B2g   1  3d1+         0.600622     1.000000
    8.6 B2g   1  3d1+         0.242808     1.000000
    9.6 B2g   1  5g1+        24.314581     1.000000
   10.6 B2g   1  5g3+        24.314581     1.000000
   11.6 B2g   1  5g1+         9.346740     1.000000
   12.6 B2g   1  5g3+         9.346740     1.000000
   13.6 B2g   1  5g1+         1.271583     1.000000
   14.6 B2g   1  5g3+         1.271583     1.000000
   15.6 B2g   1  5g1+         0.546359     1.000000
   16.6 B2g   1  5g3+         0.546359     1.000000
    1.7 B3g   1  3d1-        47.749735     1.000000
    2.7 B3g   1  3d1-        24.927883     1.000000
    3.7 B3g   1  3d1-        13.013672     1.000000
    4.7 B3g   1  3d1-         6.793824     1.000000
    5.7 B3g   1  3d1-         3.675177     1.000000
    6.7 B3g   1  3d1-         1.485730     1.000000
    7.7 B3g   1  3d1-         0.600622     1.000000
    8.7 B3g   1  3d1-         0.242808     1.000000
    9.7 B3g   1  5g1-        24.314581     1.000000
   10.7 B3g   1  5g3-        24.314581     1.000000
   11.7 B3g   1  5g1-         9.346740     1.000000
   12.7 B3g   1  5g3-         9.346740     1.000000
   13.7 B3g   1  5g1-         1.271583     1.000000
   14.7 B3g   1  5g3-         1.271583     1.000000
   15.7 B3g   1  5g1-         0.546359     1.000000
   16.7 B3g   1  5g3-         0.546359     1.000000
    1.8 Au    1  4f2-        29.426738     1.000000
    2.8 Au    1  4f2-        12.277501     1.000000
    3.8 Au    1  4f2-         5.122451     1.000000
    4.8 Au    1  4f2-         1.326315     1.000000
    5.8 Au    1  4f2-         0.646284     1.000000
    6.8 Au    1  4f2-         0.314920     1.000000
    7.8 Au    1  6h4-        18.451802     1.000000
    8.8 Au    1  6h2-        18.451802     1.000000
    9.8 Au    1  6h4-         1.046829     1.000000
   10.8 Au    1  6h2-         1.046829     1.000000

 NUCLEAR CHARGE:                    7
 NUMBER OF PRIMITIVE AOS:         290
 NUMBER OF SYMMETRY AOS:          220
 NUMBER OF CONTRACTIONS:          180   (  38Ag  +  28B3u +  28B2u +  16B1g +  28B1u +  16B2g +  16B3g +  10Au  )
 NUMBER OF CORE ORBITALS:           0   (   0Ag  +   0B3u +   0B2u +   0B1g +   0B1u +   0B2g +   0B3g +   0Au  )
 NUMBER OF VALENCE ORBITALS:        4   (   1Ag  +   1B3u +   1B2u +   0B1g +   1B1u +   0B2g +   0B3g +   0Au  )


 NUCLEAR REPULSION ENERGY    0.00000000

 EXTRA SYMMETRY OF AOS IN SYMMETRY 1:   1 1 1 1 1 1 1 1 1 1   2 3 2 3 2 3 2 3 2 3   2 3 2 3 2 3 4 5 6 4   5 6 4 5 6 4 5 6
 EXTRA SYMMETRY OF AOS IN SYMMETRY 2:   1 1 1 1 1 1 1 1 1 1   2 3 2 3 2 3 2 3 2 3   2 3 4 5 6 4 5 6
 EXTRA SYMMETRY OF AOS IN SYMMETRY 3:   1 1 1 1 1 1 1 1 1 1   2 3 2 3 2 3 2 3 2 3   2 3 4 5 6 4 5 6
 EXTRA SYMMETRY OF AOS IN SYMMETRY 4:   1 1 1 1 1 1 1 1 2 3   2 3 2 3 2 3
 EXTRA SYMMETRY OF AOS IN SYMMETRY 5:   1 1 1 1 1 1 1 1 1 1   2 3 2 3 2 3 2 3 2 3   2 3 4 5 6 4 5 6
 EXTRA SYMMETRY OF AOS IN SYMMETRY 6:   1 1 1 1 1 1 1 1 2 3   2 3 2 3 2 3
 EXTRA SYMMETRY OF AOS IN SYMMETRY 7:   1 1 1 1 1 1 1 1 2 3   2 3 2 3 2 3
 EXTRA SYMMETRY OF AOS IN SYMMETRY 8:   1 1 1 1 1 1 2 3 2 3

 Eigenvalues of metric

         1 0.699E-05 0.444E-03 0.314E-02 0.516E-02 0.516E-02 0.960E-02 0.322E-01 0.322E-01
         2 0.429E-05 0.236E-03 0.950E-02 0.341E-01 0.719E-01 0.719E-01 0.984E-01 0.163E+00
         3 0.429E-05 0.236E-03 0.950E-02 0.341E-01 0.719E-01 0.719E-01 0.984E-01 0.163E+00
         4 0.516E-02 0.322E-01 0.978E-01 0.261E+00 0.363E+00 0.363E+00 0.466E+00 0.466E+00
         5 0.429E-05 0.236E-03 0.950E-02 0.341E-01 0.719E-01 0.719E-01 0.984E-01 0.163E+00
         6 0.516E-02 0.322E-01 0.978E-01 0.261E+00 0.363E+00 0.363E+00 0.466E+00 0.466E+00
         7 0.516E-02 0.322E-01 0.978E-01 0.261E+00 0.363E+00 0.363E+00 0.466E+00 0.466E+00
         8 0.719E-01 0.163E+00 0.533E+00 0.879E+00 0.994E+00 0.994E+00 0.101E+01 0.101E+01


 Contracted 2-electron integrals neglected if value below      1.0D-12
 AO integral compression algorithm  1   Integral accuracy      1.0D-12

     113.770 MB (compressed) written to integral file ( 49.5%)


 NUMBER OF SORTED TWO-ELECTRON INTEGRALS:   17097403.     BUFFER LENGTH:  32768
 NUMBER OF SEGMENTS:   2  SEGMENT LENGTH:   15999355      RECORD LENGTH: 524288

 Memory used in sort:      16.56 MW

 SORT1 READ    28755968. AND WROTE    12139121. INTEGRALS IN     36 RECORDS. CPU TIME:     0.81 SEC, REAL TIME:     1.40 SEC
 SORT2 READ    12139121. AND WROTE    17097403. INTEGRALS IN    434 RECORDS. CPU TIME:     0.53 SEC, REAL TIME:     0.96 SEC

 FILE SIZES:   FILE 1:   134.4 MBYTE,  FILE 4:   151.0 MBYTE,   TOTAL:    285.4 MBYTE

 OPERATOR DM      FOR CENTER  0  COORDINATES:    0.000000    0.000000    0.000000
 OPERATOR EKIN    FOR CENTER  0  COORDINATES:    0.000000    0.000000    0.000000
 OPERATOR POT     FOR CENTER  0  COORDINATES:    0.000000    0.000000    0.000000


 **********************************************************************************************************************************
 DATASETS  * FILE   NREC   LENGTH (MB)   RECORD NAMES
              1      20       87.92       500      610      700      900      950      970     1000      129      960     1100   
                                          VAR    BASINP    GEOM    SYMINP    ZMAT    AOBASIS   BASIS     P2S    ABASIS      S 
                                         1400     1410     1420     1200     1210     1080     1600     1650     1300     1700   
                                         EKIN       V       ECP      H0       H01     AOSYM     SMH    MOLCAS    ERIS     OPER   

 PROGRAMS   *        TOTAL       INT
 CPU TIMES  *         7.61      7.49
 REAL TIME  *        14.91 SEC
 DISK USED  *       285.76 MB      
 **********************************************************************************************************************************


 PROGRAM * RHF-SCF (OPEN SHELL)       Authors: W. Meyer, H.-J. Werner


 NUMBER OF ELECTRONS:       8+    7-    SPACE SYMMETRY=3    SPIN SYMMETRY: Doublet 
 CONVERGENCE THRESHOLDS:    1.00E-05 (Density)    1.00E-07 (Energy)
 MAX. NUMBER OF ITERATIONS:       60
 INTERPOLATION TYPE:            DIIS
 INTERPOLATION STEPS:              2 (START)      1 (STEP)
 LEVEL SHIFTS:                 -0.60 (CLOSED) -0.30 (OPEN) 

 Number of closed-shell orbitals:    7 (   2   2   1   0   2   0   0   0 )
 Number of open-shell orbitals:      1 (   0   0   1   0   0   0   0   0 )



   Atom=CL basis=ECP10MWB_GUESS    lmin=0  lmax=1

 Orbital guess generated from atomic densities. Full valence occupancy:    1   1   1   0   1   0   0   0


 Molecular orbital dump at record        2100.2

 ITERATION    DDIFF          GRAD             ENERGY        2-EL.EN.            DIPOLE MOMENTS         DIIS   ORB.
    1      0.000D+00      0.000D+00      -159.67827600    316.174283    0.00000    0.00000    0.00000    0    start
    2      0.000D+00      0.687D+00      -176.76087707    160.745332    0.00000    0.00000    0.00000    1    diag,B
    3      0.170D+02      0.250D+00      -181.44628469    213.558358    0.00000    0.00000    0.00000    2    diag,B
    4      0.148D+02      0.368D-01      -181.58723976    211.919830    0.00000    0.00000    0.00000    3    diag,B
    5      0.127D+01      0.825D-02      -181.61070463    211.872021    0.00000    0.00000    0.00000    4    diag,B
    6      0.674D+00      0.260D-02      -181.61461439    212.269302    0.00000    0.00000    0.00000    5    diag,B
    7      0.225D+00      0.613D-03      -181.61488231    212.421408    0.00000    0.00000    0.00000    6    fixocc
    8      0.345D-01      0.126D-03      -181.61489493    212.424175    0.00000    0.00000    0.00000    7    diag,B
    9      0.452D-02      0.368D-04      -181.61489630    212.423610    0.00000    0.00000    0.00000    8    diag,B
   10      0.236D-02      0.510D-05      -181.61489633    212.423103    0.00000    0.00000    0.00000    9    orth
   11      0.425D-04      0.135D-05      -181.61489633    212.423181    0.00000    0.00000    0.00000    9    diag,B
   12      0.100D-03      0.215D-06      -181.61489633    212.423209    0.00000    0.00000    0.00000    9    diag,B
   13      0.188D-04      0.278D-07      -181.61489633    212.423213    0.00000    0.00000    0.00000    9    diag,B
   14      0.183D-05      0.331D-08      -181.61489633    212.423213    0.00000    0.00000    0.00000    0    orth

 Final alpha occupancy:   2   2   2   0   2   0   0   0
 Final beta  occupancy:   2   2   1   0   2   0   0   0

 !RHF STATE 1.3 Energy               -181.614896328459
 Nuclear energy                         0.00000000
 One-electron energy                 -287.82650268
 Two-electron energy                  106.21160635
 Virial quotient                       -1.26078862
 !RHF STATE 1.3 Dipole moment           0.00000000     0.00000000     0.00000000
 Dipole moment /Debye                   0.00000000     0.00000000     0.00000000
 

 !RHF expec          <1.3|EKIN|1.3>   144.048647760304
 
 !RHF expec           <1.3|POT|1.3>   -29.395633546354

 ELECTRON ORBITALS
 =================


   Orb  Occ    Energy  Couls-En    Coefficients

                                   1 1s      1 1s      1 1s      1 1s      1 1s      1 1s      1 1s      1 1s      1 1s      1 1s   
                                   1 3d0     1 3d2+    1 3d0     1 3d2+    1 3d0     1 3d2+    1 3d0     1 3d2+    1 3d0     1 3d2+ 
                                   1 3d0     1 3d2+    1 3d0     1 3d2+    1 3d0     1 3d2+    1 5g0     1 5g4+    1 5g2+    1 5g0  
                                   1 5g4+    1 5g2+    1 5g0     1 5g4+    1 5g2+    1 5g0     1 5g4+    1 5g2+ 

   1.1   2   -10.6940  -39.6439  0.986845 -0.025792  0.000118 -0.000837 -0.000155  0.000703 -0.003988  0.009729  0.015429  0.008197
                                -0.000001 -0.000002  0.000004  0.000008 -0.000051 -0.000088 -0.000005 -0.000009 -0.000440 -0.000763
                                -0.000153 -0.000265  0.000126  0.000219  0.000013  0.000022 -0.000000 -0.000000 -0.000000  0.000000
                                 0.000000  0.000000  0.000000  0.000001  0.000001 -0.000000 -0.000000 -0.000000

   2.1   2    -1.0811  -11.2163  0.045058  1.084717 -0.000400  0.002955  0.000966 -0.003481  0.011024 -0.030307 -0.051848 -0.026549
                                -0.000001 -0.000002 -0.000002 -0.000003 -0.000001 -0.000002 -0.000042 -0.000073  0.000152  0.000262
                                 0.000500  0.000867 -0.000235 -0.000408  0.002810  0.004866  0.000000  0.000000  0.000000 -0.000000
                                -0.000000 -0.000000  0.000002  0.000003  0.000002 -0.000008 -0.000017 -0.000013

                                   1 2px     1 2px     1 2px     1 2px     1 2px     1 2px     1 2px     1 2px     1 2px     1 2px  
                                   1 4f1+    1 4f3+    1 4f1+    1 4f3+    1 4f1+    1 4f3+    1 4f1+    1 4f3+    1 4f1+    1 4f3+ 
                                   1 4f1+    1 4f3+    1 6h1+    1 6h3+    1 6h5+    1 6h1+    1 6h3+    1 6h5+ 

   1.2   2    -8.2188  -35.9480  0.998590  0.000806  0.000148  0.000427  0.000742  0.000840 -0.000501 -0.000341 -0.000280 -0.000110
                                -0.000008 -0.000029 -0.000002 -0.000007 -0.000098 -0.000379 -0.000093 -0.000361  0.000063  0.000244
                                -0.000017 -0.000067  0.000000  0.000000  0.000000  0.000000  0.000000  0.000000

   2.2   2    -0.4913   -9.1281  0.018822 -1.040177 -0.000287 -0.000896 -0.001189 -0.001566 -0.005765 -0.021746 -0.020905  0.001120
                                 0.000001  0.000004 -0.000001 -0.000004 -0.000000 -0.000001 -0.000357 -0.001381 -0.000660 -0.002558
                                -0.001104 -0.004274  0.000000  0.000000  0.000000  0.000004  0.000012  0.000027

                                   1 2py     1 2py     1 2py     1 2py     1 2py     1 2py     1 2py     1 2py     1 2py     1 2py  
                                   1 4f1-    1 4f3-    1 4f1-    1 4f3-    1 4f1-    1 4f3-    1 4f1-    1 4f3-    1 4f1-    1 4f3- 
                                   1 4f1-    1 4f3-    1 6h1-    1 6h3-    1 6h5-    1 6h1-    1 6h3-    1 6h5- 

   1.3   2    -8.2220  -35.9334  1.003012  0.001266 -0.000297 -0.000830 -0.001487 -0.001621  0.000902  0.000256  0.000129  0.000043
                                -0.000023 -0.000029 -0.000005 -0.000007 -0.000294 -0.000379 -0.000283 -0.000365  0.000188  0.000243
                                -0.000055 -0.000071  0.000000  0.000000  0.000000  0.000000  0.000000  0.000000

   2.3   +    -0.5688   -9.3380 -0.023226 -0.952418  0.000375  0.001181  0.001582  0.002026  0.005301  0.038541  0.029218 -0.022866
                                 0.000006  0.000008 -0.000003 -0.000004 -0.000011 -0.000014 -0.002380 -0.003072 -0.004727 -0.006103
                                -0.006632 -0.008562  0.000000  0.000000  0.000000  0.000095  0.000102  0.000138

                                   1 2pz     1 2pz     1 2pz     1 2pz     1 2pz     1 2pz     1 2pz     1 2pz     1 2pz     1 2pz  
                                   1 4f0     1 4f2+    1 4f0     1 4f2+    1 4f0     1 4f2+    1 4f0     1 4f2+    1 4f0     1 4f2+ 
                                   1 4f0     1 4f2+    1 6h2+    1 6h4+    1 6h0     1 6h2+    1 6h4+    1 6h0  

   1.5   2    -8.2188  -35.9480  0.998590  0.000806  0.000148  0.000427  0.000742  0.000840 -0.000501 -0.000341 -0.000280 -0.000110
                                -0.000019 -0.000024 -0.000005 -0.000006 -0.000240 -0.000309 -0.000229 -0.000295  0.000154  0.000199
                                -0.000042 -0.000055  0.000000  0.000000  0.000000  0.000000  0.000000  0.000000

   2.5   2    -0.4913   -9.1281  0.018822 -1.040177 -0.000287 -0.000896 -0.001189 -0.001566 -0.005765 -0.021746 -0.020905  0.001120
                                 0.000003  0.000003 -0.000003 -0.000003 -0.000001 -0.000001 -0.000873 -0.001127 -0.001618 -0.002088
                                -0.002703 -0.003490  0.000000  0.000000  0.000000  0.000020  0.000017  0.000015

 HOMO      2.2    -0.491298 =     -13.3689eV
 LUMO      3.1     0.235897 =       6.4191eV
 LUMO-HOMO         0.727195 =      19.7880eV


 **********************************************************************************************************************************
 DATASETS  * FILE   NREC   LENGTH (MB)   RECORD NAMES
              1      20       87.92       500      610      700      900      950      970     1000      129      960     1100   
                                          VAR    BASINP    GEOM    SYMINP    ZMAT    AOBASIS   BASIS     P2S    ABASIS      S 
                                         1400     1410     1420     1200     1210     1080     1600     1650     1300     1700   
                                         EKIN       V       ECP      H0       H01     AOSYM     SMH    MOLCAS    ERIS     OPER   

              2       4        2.91       700     1000      520     2100   
                                         GEOM     BASIS   MCVARS     RHF  

 PROGRAMS   *        TOTAL        HF       INT
 CPU TIMES  *         8.42      0.80      7.49
 REAL TIME  *        16.02 SEC
 DISK USED  *       285.76 MB      
 **********************************************************************************************************************************
 SETTING SCF(I)         =      -181.61489633  AU                              
 SETTING _CC_NORM_MAX   =         2.00000000                                  


 PROGRAM * CI (Multireference internally contracted CI)     Authors: H.-J. Werner, P.J. Knowles, 1987


 Convergence thresholds:  THRVAR = 1.00D-08  THRDEN = 1.00D-06

 Number of optimized states:  1  Roots:   1
 Number of reference states:  1  Roots:   1

 Reference symmetry:                   3   Doublet 
 Number of electrons:                 15
 Maximum number of shells:             3
 Maximum number of spin couplings:     5

 Reference space:        1 conf        1 CSFs
 N elec internal:        8 conf        8 CSFs
 N-1 el internal:       36 conf       64 CSFs
 N-2 el internal:       35 conf      133 CSFs

 Number of electrons in valence space:                     15
 Maximum number of open shell orbitals in reference space:  1
 Maximum number of open shell orbitals in internal spaces:  5


 Number of closed-shell orbitals:   7 (   2   2   1   0   2   0   0   0 )
 Number of active  orbitals:        1 (   0   0   1   0   0   0   0   0 )
 Number of external orbitals:     172 (  36  26  26  16  26  16  16  10 )

 Molecular orbitals read from record     2100.2  Type=RHF/CANONICAL (state 1.3)

 Integral transformation finished. Total CPU:   0.16 sec, npass=  1  Memory used:   0.24 MW

 Number of p-space configurations:   1

 Reference wavefunction optimized for reference space (refopt=1)

 State     Reference Energy 
   1        -181.61489633

 Number of blocks in overlap matrix:    63   Smallest eigenvalue:  0.10D+01
 Number of N-2 electron functions:      63
 Number of N-1 electron functions:      64

 Number of internal configurations:                    2
 Number of singly external configurations:          1456
 Number of doubly external configurations:        120746
 Total number of contracted configurations:       122204
 Total number of uncontracted configurations:     255152

 Diagonal Coupling coefficients finished.               Storage:    6344 words, CPU-Time:      0.00 seconds.
 Energy denominators for pairs finished in 1 passes.    Storage:   73953 words, CPU-time:      0.00 seconds.

  ITER. STATE  ROOT     SQ.NORM     CORR.ENERGY   TOTAL ENERGY   ENERGY CHANGE       DEN1      VAR(S)    VAR(P)      TIME
    1     1     1     1.00000000     0.00000000  -181.61489633    -0.00000000    -0.57622563  0.19D-01  0.82D-01     0.18
    2     1     1     1.07849591    -0.51004004  -182.12493637    -0.51004004    -0.01125485  0.14D-02  0.19D-02     0.54
    3     1     1     1.06313108    -0.52051338  -182.13540970    -0.01047334    -0.00009907  0.70D-05  0.15D-04     0.88
    4     1     1     1.06270350    -0.52061267  -182.13550900    -0.00009929    -0.00000171  0.33D-06  0.20D-06     1.22
    5     1     1     1.06277434    -0.52061447  -182.13551080    -0.00000180    -0.00000004  0.38D-08  0.60D-08     1.58
    6     1     1     1.06277868    -0.52061451  -182.13551084    -0.00000004    -0.00000000  0.22D-09  0.13D-09     1.94


 =====================================
 Analysis of CPU times by interactions
 =====================================

       I      S      P

 I   0.0%
 S   0.0%   1.5%
 P   0.5%   1.0%  11.9%

 Initialization:   8.8%
 Other:           76.3%

 Total CPU:        1.9 seconds
 =====================================



 Reference coefficients greater than 0.0500000
 =============================================
 22222/22           0.9700150



 RESULTS FOR STATE 1.3
 =====================

 Coefficient of reference function:   C(0) = 0.97001503 (fixed)   0.97001503 (relaxed)

 Energy contributions of configuration classes

 CLASS          SQ.NORM        ECORR1        ECORR2
 +++++++++++++++++++++++++++++++++++++++++++++++++++
 Internals    0.00000055    0.00000000   -0.00000027
 Singles      0.00960610   -0.02612631   -0.02928928
 Pairs        0.05317262   -0.49448820   -0.49132496
 Total        1.06277927   -0.52061451   -0.52061451
 +++++++++++++++++++++++++++++++++++++++++++++++++++


 Reference energy                    -181.61489633
 Nuclear energy                         0.00000000
 Kinetic energy                       144.49668911
 One electron energy                 -287.59231169
 Two electron energy                  105.45680085
 Virial quotient                       -1.26048224
 Correlation energy                    -0.52061451
 !CI(SD) STATE 1.3 Energy            -182.135510839460

 Properties without orbital relaxation:

 !CI(SD) STATE 1.3 Dipole moment        0.00000000     0.00000000     0.00000000
 Dipole moment /Debye                   0.00000000     0.00000000     0.00000000

 Cluster corrected energies          -182.16819464 (Davidson, fixed reference)
 Cluster corrected energies          -182.16819464 (Davidson, relaxed reference)

 Cluster corrected energies          -182.16482525 (Pople, fixed reference)
 Cluster corrected energies          -182.16482525 (Pople, relaxed reference)

 

 !CI(SD) expec       <1.3|EKIN|1.3>   144.496689110603
 
 !CI(SD) expec        <1.3|POT|1.3>   -29.410562653119


 **********************************************************************************************************************************
 DATASETS  * FILE   NREC   LENGTH (MB)   RECORD NAMES
              1      21       89.93       500      610      700      900      950      970     1000      129      960     1100   
                                          VAR    BASINP    GEOM    SYMINP    ZMAT    AOBASIS   BASIS     P2S    ABASIS      S 
                                         1400     1410     1420     1200     1210     1080     1600     1650     1300     1700   
                                         EKIN       V       ECP      H0       H01     AOSYM     SMH    MOLCAS    ERIS     OPER   
                                         1380   
                                         JKOP   

              2       4        2.91       700     1000      520     2100   
                                         GEOM     BASIS   MCVARS     RHF  

 PROGRAMS   *        TOTAL        CI        HF       INT
 CPU TIMES  *        10.41      1.98      0.80      7.49
 REAL TIME  *        19.40 SEC
 DISK USED  *       285.76 MB      
 **********************************************************************************************************************************
 SETTING POSTHF(I)      =      -182.13551084  AU                              
                                                                                                                                                                                                                                                                

         SCF            POSTHF        EKIN          POT
    -181.6148963   -182.1355108   144.4966891   -29.41056265
                                                  

 CI/USERDEF energy=   -182.135510839460

        CI              HF-SCF  
   -182.13551084   -181.61489633
 **********************************************************************************************************************************
 Molpro calculation terminated
 Variable memory released
