
 Primary working directories    : /global/cscratch1/sd/aannabe
 Secondary working directories  : /global/cscratch1/sd/aannabe
 Wavefunction directory         : /global/homes/a/aannabe/wfu/
 Main file repository           : /global/cscratch1/sd/aannabe/

 SHA1      : 19cd028119e0e09f93f0674bd8af7968d9b3eff6
 NAME      : 2015.1.36
 ARCHNAME  : linux/x86_64
 FC        : /opt/cray/pe/craype/2.5.14/bin/ftn
 BLASLIB   : -L/opt/intel/compilers_and_libraries_2018.1.163/linux/mkl/lib/intel64 -Wl,-_start-group -lmkl_intel_ilp64 -lmkl_intel_thread -lmkl_core -Wl,-_end-group -liomp5
 id        : lbl

 Nodes     nprocs
 nid00443     1

 Using customized tuning parameters: mindgm=7; mindgv=16; mindgc=1; mindgr=1; noblas=0; minvec=7
 default implementation of scratch files=df  

 ***,S
 memory,512,m
 gthresh,twoint=1.e-12
 
 gprint,basis,orbitals
 gexpec,ekin,pot
 
 angstrom
 geometry={
 1                                                                               ! Number of atoms
 S 0.0 0.0 0.0
 }
 
 basis={
 Including file /global/homes/a/aannabe/repos/pseudopotentiallibrary/recipes/S/ccECP_He_core/S.ccECP.molpro
 Including file /global/homes/a/aannabe/repos/pseudopotentiallibrary/recipes/S/ccECP_He_core/cc-pCVQZ.molpro
 }
 
 {rhf
  start,atden
  wf,14,7,2
  occ,2,2,2,0,2,0,0,0
  closed,2,2,1,0,1,0,0,0
                                                                                 ! open,2.3,2.5
  orbital,4202.2
 }
 {multi
  maxiter,40
  start,4202.2
  occ,2,2,2,0,2,0,0,0
  closed,2,1,1,0,1,0,0
  wf,14,4,2;state,1
  wf,14,6,2;state,1
  wf,14,7,2;state,1
  natorb,ci,print
  orbital,5202.2
 }
 {rhf,nitord=1,maxit=0
  start,5202.2
  wf,14,7,2
  occ,2,2,2,0,2,0,0,0
  closed,2,2,1,0,1,0,0,0
                                                                                 ! open,2.3,2.5
 }
 
 scf(i)=energy
 
 _CC_NORM_MAX=2.0
 {ci
 maxit,100
 core
 }
 posthf(i)=energy
 
 table,scf,posthf,ekin,pot
 save,4.csv,new
 
 

 Variables initialized (889), CPU time= 0.00 sec
 Commands  initialized (702), CPU time= 0.01 sec, 572 directives.
 Default parameters read. Elapsed time= 0.10 sec

 Checking input...
 Passed
1


                                         ***  PROGRAM SYSTEM MOLPRO  ***
                                       Copyright, TTI GmbH Stuttgart, 2015
                                    Version 2015.1 linked Dec 29 2018 15:55:43


 **********************************************************************************************************************************
 LABEL *   S                                                                             
  64 bit serial version                                                                  DATE: 28-Jan-19          TIME: 15:30:41  
 **********************************************************************************************************************************

 SHA1:             19cd028119e0e09f93f0674bd8af7968d9b3eff6
 **********************************************************************************************************************************

 THRESHOLDS:

 ZERO    =  1.00D-12  ONEINT  =  1.00D-12  TWOINT  =  1.00D-12  PREFAC  =  1.00D-14  LOCALI  =  1.00D-09  EORDER  =  1.00D-04
 ENERGY  =  0.00D+00  ETEST   =  0.00D+00  EDENS   =  0.00D+00  THRDEDEF=  1.00D-06  GRADIENT=  1.00D-02  STEP    =  1.00D-03
 ORBITAL =  1.00D-05  CIVEC   =  1.00D-05  COEFF   =  1.00D-04  PRINTCI =  5.00D-02  PUNCHCI =  9.90D+01  OPTGRAD =  3.00D-04
 OPTENERG=  1.00D-06  OPTSTEP =  3.00D-04  THRGRAD =  1.00D-10  COMPRESS=  1.00D-11  VARMIN  =  1.00D-07  VARMAX  =  1.00D-03
 THRDOUB =  0.00D+00  THRDIV  =  1.00D-05  THRRED  =  1.00D-07  THRPSP  =  1.00D+00  THRDC   =  1.00D-10  THRCS   =  1.00D-10
 THRNRM  =  1.00D-08  THREQ   =  0.00D+00  THRDE   =  1.00D+00  THRREF  =  1.00D-05  SPARFAC =  1.00D+00  THRDLP  =  1.00D-07
 THRDIA  =  1.00D-10  THRDLS  =  1.00D-07  THRGPS  =  0.00D+00  THRKEX  =  0.00D+00  THRDIS  =  2.00D-01  THRVAR  =  1.00D-10
 THRLOC  =  1.00D-06  THRGAP  =  1.00D-06  THRLOCT = -1.00D+00  THRGAPT = -1.00D+00  THRORB  =  1.00D-06  THRMLTP =  0.00D+00
 THRCPQCI=  1.00D-10  KEXTA   =  0.00D+00  THRCOARS=  0.00D+00  SYMTOL  =  1.00D-06  GRADTOL =  1.00D-06  THROVL  =  1.00D-08
 THRORTH =  1.00D-08  GRID    =  1.00D-06  GRIDMAX =  1.00D-03  DTMAX   =  0.00D+00  THROCCDE=  1.00D-01  THROCCDE=  1.00D-01



 ZUNIT=ANG
 

Geometry recognized as XYZ


 Variable memory set to  512000000 words,  buffer space   230000 words

 SETTING BASIS          =    USERDEF


 Recomputing integrals since basis changed


 Using spherical harmonics



 PROGRAM * SEWARD (Integral evaluation for generally contracted gaussian basis sets)     Author: Roland Lindh, 1990

 Geometry written to block  1 of record 700

 Orientation using atomic masses  
 Molecule type: Atom
 Symmetry elements: X,Y,Z
 Rotational constants:       0.0000000      0.0000000      0.0000000 GHz  (calculated with average atomic masses)

 Point group  D2h 



 ATOMIC COORDINATES

 NR  ATOM    CHARGE       X              Y              Z

   1  S       6.00    0.000000000    0.000000000    0.000000000


          S   CORE POTENTIAL

          d POTENTIAL

 POWERS             1              3              2              1              1
 EXPONENTIALS   17.97761       20.43596       19.79658       0.000000       0.000000    
 COEFFICIENTS   14.00000       251.6866      -135.5389       6.000000      -14.00000    

          s - d POTENTIAL

 POWERS             2              2
 EXPONENTIALS   111.9363       43.94184    
 COEFFICIENTS   25.24328       227.0608    

          p - d POTENTIAL

 POWERS             2
 EXPONENTIALS   1.000000    
 COEFFICIENTS   0.000000    


 BASIS DATA

   Nr Sym  Nuc  Type         Exponents   Contraction coefficients

    1.1 Ag    1  1s         306.317903     0.000064    0.000021
    2.1 Ag                  146.602801    -0.000785   -0.000004
                             70.163647     0.022471   -0.006119
                             33.580104    -0.169871    0.054471
                             16.071334    -0.061897    0.019344
                              7.691691     0.240039   -0.083839
                              3.681219     0.551649   -0.265322
                              1.761820     0.334386   -0.293065
                              0.843202     0.031323    0.113730
                              0.403554     0.004436    0.529282
                              0.193140    -0.001015    0.466254
                              0.092436     0.000507    0.125800
    3.1 Ag    1  1s          16.809913     1.000000
    4.1 Ag    1  1s           6.952959     1.000000
    5.1 Ag    1  1s           2.875901     1.000000
    6.1 Ag    1  1s           0.893039     1.000000
    7.1 Ag    1  1s           0.358094     1.000000
    8.1 Ag    1  1s           0.143590     1.000000
    9.1 Ag    1  3d0         25.211060     1.000000
   10.1 Ag    1  3d2+        25.211060     1.000000
   11.1 Ag    1  3d0         10.249327     1.000000
   12.1 Ag    1  3d2+        10.249327     1.000000
   13.1 Ag    1  3d0          4.166771     1.000000
   14.1 Ag    1  3d2+         4.166771     1.000000
   15.1 Ag    1  3d0          1.259166     1.000000
   16.1 Ag    1  3d2+         1.259166     1.000000
   17.1 Ag    1  3d0          0.507276     1.000000
   18.1 Ag    1  3d2+         0.507276     1.000000
   19.1 Ag    1  3d0          0.204365     1.000000
   20.1 Ag    1  3d2+         0.204365     1.000000
   21.1 Ag    1  5g0         12.837881     1.000000
   22.1 Ag    1  5g4+        12.837881     1.000000
   23.1 Ag    1  5g2+        12.837881     1.000000
   24.1 Ag    1  5g0          0.683967     1.000000
   25.1 Ag    1  5g4+         0.683967     1.000000
   26.1 Ag    1  5g2+         0.683967     1.000000
    1.2 B3u   1  2px         55.148271     0.013447    0.003542
    2.2 B3u                  29.056588     0.101670    0.025797
                             15.309371     0.185192    0.047260
                              8.066220     0.275836    0.075594
                              4.249940     0.317073    0.091980
                              2.239213     0.217066    0.062067
                              1.179799     0.065765   -0.071253
                              0.621614     0.006517   -0.250206
                              0.327517     0.001111   -0.349295
                              0.172562     0.000222   -0.312700
                              0.090920     0.000181   -0.155898
                              0.047904     0.000008   -0.030418
    3.2 B3u   1  2px         18.079594     1.000000
    4.2 B3u   1  2px          8.639899     1.000000
    5.2 B3u   1  2px          4.128846     1.000000
    6.2 B3u   1  2px          1.862831     1.000000
    7.2 B3u   1  2px          0.770080     1.000000
    8.2 B3u   1  2px          0.318345     1.000000
    9.2 B3u   1  4f1+        17.162964     1.000000
   10.2 B3u   1  4f3+        17.162964     1.000000
   11.2 B3u   1  4f1+         6.124538     1.000000
   12.2 B3u   1  4f3+         6.124538     1.000000
   13.2 B3u   1  4f1+         0.849923     1.000000
   14.2 B3u   1  4f3+         0.849923     1.000000
   15.2 B3u   1  4f1+         0.329207     1.000000
   16.2 B3u   1  4f3+         0.329207     1.000000
    1.3 B2u   1  2py         55.148271     0.013447    0.003542
    2.3 B2u                  29.056588     0.101670    0.025797
                             15.309371     0.185192    0.047260
                              8.066220     0.275836    0.075594
                              4.249940     0.317073    0.091980
                              2.239213     0.217066    0.062067
                              1.179799     0.065765   -0.071253
                              0.621614     0.006517   -0.250206
                              0.327517     0.001111   -0.349295
                              0.172562     0.000222   -0.312700
                              0.090920     0.000181   -0.155898
                              0.047904     0.000008   -0.030418
    3.3 B2u   1  2py         18.079594     1.000000
    4.3 B2u   1  2py          8.639899     1.000000
    5.3 B2u   1  2py          4.128846     1.000000
    6.3 B2u   1  2py          1.862831     1.000000
    7.3 B2u   1  2py          0.770080     1.000000
    8.3 B2u   1  2py          0.318345     1.000000
    9.3 B2u   1  4f1-        17.162964     1.000000
   10.3 B2u   1  4f3-        17.162964     1.000000
   11.3 B2u   1  4f1-         6.124538     1.000000
   12.3 B2u   1  4f3-         6.124538     1.000000
   13.3 B2u   1  4f1-         0.849923     1.000000
   14.3 B2u   1  4f3-         0.849923     1.000000
   15.3 B2u   1  4f1-         0.329207     1.000000
   16.3 B2u   1  4f3-         0.329207     1.000000
    1.4 B1g   1  3d2-        25.211060     1.000000
    2.4 B1g   1  3d2-        10.249327     1.000000
    3.4 B1g   1  3d2-         4.166771     1.000000
    4.4 B1g   1  3d2-         1.259166     1.000000
    5.4 B1g   1  3d2-         0.507276     1.000000
    6.4 B1g   1  3d2-         0.204365     1.000000
    7.4 B1g   1  5g2-        12.837881     1.000000
    8.4 B1g   1  5g4-        12.837881     1.000000
    9.4 B1g   1  5g2-         0.683967     1.000000
   10.4 B1g   1  5g4-         0.683967     1.000000
    1.5 B1u   1  2pz         55.148271     0.013447    0.003542
    2.5 B1u                  29.056588     0.101670    0.025797
                             15.309371     0.185192    0.047260
                              8.066220     0.275836    0.075594
                              4.249940     0.317073    0.091980
                              2.239213     0.217066    0.062067
                              1.179799     0.065765   -0.071253
                              0.621614     0.006517   -0.250206
                              0.327517     0.001111   -0.349295
                              0.172562     0.000222   -0.312700
                              0.090920     0.000181   -0.155898
                              0.047904     0.000008   -0.030418
    3.5 B1u   1  2pz         18.079594     1.000000
    4.5 B1u   1  2pz          8.639899     1.000000
    5.5 B1u   1  2pz          4.128846     1.000000
    6.5 B1u   1  2pz          1.862831     1.000000
    7.5 B1u   1  2pz          0.770080     1.000000
    8.5 B1u   1  2pz          0.318345     1.000000
    9.5 B1u   1  4f0         17.162964     1.000000
   10.5 B1u   1  4f2+        17.162964     1.000000
   11.5 B1u   1  4f0          6.124538     1.000000
   12.5 B1u   1  4f2+         6.124538     1.000000
   13.5 B1u   1  4f0          0.849923     1.000000
   14.5 B1u   1  4f2+         0.849923     1.000000
   15.5 B1u   1  4f0          0.329207     1.000000
   16.5 B1u   1  4f2+         0.329207     1.000000
    1.6 B2g   1  3d1+        25.211060     1.000000
    2.6 B2g   1  3d1+        10.249327     1.000000
    3.6 B2g   1  3d1+         4.166771     1.000000
    4.6 B2g   1  3d1+         1.259166     1.000000
    5.6 B2g   1  3d1+         0.507276     1.000000
    6.6 B2g   1  3d1+         0.204365     1.000000
    7.6 B2g   1  5g1+        12.837881     1.000000
    8.6 B2g   1  5g3+        12.837881     1.000000
    9.6 B2g   1  5g1+         0.683967     1.000000
   10.6 B2g   1  5g3+         0.683967     1.000000
    1.7 B3g   1  3d1-        25.211060     1.000000
    2.7 B3g   1  3d1-        10.249327     1.000000
    3.7 B3g   1  3d1-         4.166771     1.000000
    4.7 B3g   1  3d1-         1.259166     1.000000
    5.7 B3g   1  3d1-         0.507276     1.000000
    6.7 B3g   1  3d1-         0.204365     1.000000
    7.7 B3g   1  5g1-        12.837881     1.000000
    8.7 B3g   1  5g3-        12.837881     1.000000
    9.7 B3g   1  5g1-         0.683967     1.000000
   10.7 B3g   1  5g3-         0.683967     1.000000
    1.8 Au    1  4f2-        17.162964     1.000000
    2.8 Au    1  4f2-         6.124538     1.000000
    3.8 Au    1  4f2-         0.849923     1.000000
    4.8 Au    1  4f2-         0.329207     1.000000

 NUCLEAR CHARGE:                    6
 NUMBER OF PRIMITIVE AOS:         178
 NUMBER OF SYMMETRY AOS:          148
 NUMBER OF CONTRACTIONS:          108   (  26Ag  +  16B3u +  16B2u +  10B1g +  16B1u +  10B2g +  10B3g +   4Au  )
 NUMBER OF CORE ORBITALS:           0   (   0Ag  +   0B3u +   0B2u +   0B1g +   0B1u +   0B2g +   0B3g +   0Au  )
 NUMBER OF VALENCE ORBITALS:        4   (   1Ag  +   1B3u +   1B2u +   0B1g +   1B1u +   0B2g +   0B3g +   0Au  )


 NUCLEAR REPULSION ENERGY    0.00000000

 EXTRA SYMMETRY OF AOS IN SYMMETRY 1:   1 1 1 1 1 1 1 1 2 3   2 3 2 3 2 3 2 3 2 3   4 5 6 4 5 6
 EXTRA SYMMETRY OF AOS IN SYMMETRY 2:   1 1 1 1 1 1 1 1 2 3   2 3 2 3 2 3
 EXTRA SYMMETRY OF AOS IN SYMMETRY 3:   1 1 1 1 1 1 1 1 2 3   2 3 2 3 2 3
 EXTRA SYMMETRY OF AOS IN SYMMETRY 4:   1 1 1 1 1 1 2 3 2 3
 EXTRA SYMMETRY OF AOS IN SYMMETRY 5:   1 1 1 1 1 1 1 1 2 3   2 3 2 3 2 3
 EXTRA SYMMETRY OF AOS IN SYMMETRY 6:   1 1 1 1 1 1 2 3 2 3
 EXTRA SYMMETRY OF AOS IN SYMMETRY 7:   1 1 1 1 1 1 2 3 2 3

 Eigenvalues of metric

         1 0.461E-04 0.527E-03 0.916E-02 0.351E-01 0.659E-01 0.659E-01 0.146E+00 0.146E+00
         2 0.372E-03 0.755E-02 0.223E-01 0.598E-01 0.216E+00 0.348E+00 0.348E+00 0.465E+00
         3 0.372E-03 0.755E-02 0.223E-01 0.598E-01 0.216E+00 0.348E+00 0.348E+00 0.465E+00
         4 0.659E-01 0.146E+00 0.461E+00 0.900E+00 0.989E+00 0.989E+00 0.101E+01 0.101E+01
         5 0.372E-03 0.755E-02 0.223E-01 0.598E-01 0.216E+00 0.348E+00 0.348E+00 0.465E+00
         6 0.659E-01 0.146E+00 0.461E+00 0.900E+00 0.989E+00 0.989E+00 0.101E+01 0.101E+01
         7 0.659E-01 0.146E+00 0.461E+00 0.900E+00 0.989E+00 0.989E+00 0.101E+01 0.101E+01
         8 0.348E+00 0.465E+00 0.149E+01 0.169E+01


 Contracted 2-electron integrals neglected if value below      1.0D-12
 AO integral compression algorithm  1   Integral accuracy      1.0D-12

     19.399 MB (compressed) written to integral file ( 58.2%)


 NUMBER OF SORTED TWO-ELECTRON INTEGRALS:    2285089.     BUFFER LENGTH:  32768
 NUMBER OF SEGMENTS:   1  SEGMENT LENGTH:    2285089      RECORD LENGTH: 524288

 Memory used in sort:       2.84 MW

 SORT1 READ     4189600. AND WROTE     1738785. INTEGRALS IN      5 RECORDS. CPU TIME:     0.11 SEC, REAL TIME:     0.15 SEC
 SORT2 READ     1738785. AND WROTE     2285089. INTEGRALS IN     74 RECORDS. CPU TIME:     0.11 SEC, REAL TIME:     0.23 SEC

 FILE SIZES:   FILE 1:    39.6 MBYTE,  FILE 4:    21.0 MBYTE,   TOTAL:     60.6 MBYTE

 OPERATOR DM      FOR CENTER  0  COORDINATES:    0.000000    0.000000    0.000000
 OPERATOR EKIN    FOR CENTER  0  COORDINATES:    0.000000    0.000000    0.000000
 OPERATOR POT     FOR CENTER  0  COORDINATES:    0.000000    0.000000    0.000000


 **********************************************************************************************************************************
 DATASETS  * FILE   NREC   LENGTH (MB)   RECORD NAMES
              1      20       30.72       500      610      700      900      950      970     1000      129      960     1100   
                                          VAR    BASINP    GEOM    SYMINP    ZMAT    AOBASIS   BASIS     P2S    ABASIS      S 
                                         1400     1410     1420     1200     1210     1080     1600     1650     1300     1700   
                                         EKIN       V       ECP      H0       H01     AOSYM     SMH    MOLCAS    ERIS     OPER   

 PROGRAMS   *        TOTAL       INT
 CPU TIMES  *         1.78      1.68
 REAL TIME  *        20.97 SEC
 DISK USED  *        60.87 MB      
 **********************************************************************************************************************************


 PROGRAM * RHF-SCF (OPEN SHELL)       Authors: W. Meyer, H.-J. Werner


 NUMBER OF ELECTRONS:       8+    6-    SPACE SYMMETRY=7    SPIN SYMMETRY: Triplet 
 CONVERGENCE THRESHOLDS:    1.00E-05 (Density)    1.00E-07 (Energy)
 MAX. NUMBER OF ITERATIONS:       60
 INTERPOLATION TYPE:            DIIS
 INTERPOLATION STEPS:              2 (START)      1 (STEP)
 LEVEL SHIFTS:                 -0.60 (CLOSED) -0.30 (OPEN) 

 Number of closed-shell orbitals:    6 (   2   2   1   0   1   0   0   0 )
 Number of open-shell orbitals:      2 (   0   0   1   0   1   0   0   0 )



   Atom=S  basis=ECP10MWB_GUESS    lmin=0  lmax=1

 Orbital guess generated from atomic densities. Full valence occupancy:    1   1   1   0   1   0   0   0


 Molecular orbital dump at record        4202.2

 ITERATION    DDIFF          GRAD             ENERGY        2-EL.EN.            DIPOLE MOMENTS         DIIS   ORB.
    1      0.000D+00      0.000D+00      -133.09308423    266.218394    0.00000    0.00000    0.00000    0    start
    2      0.000D+00      0.764D+00      -149.05353831    146.251670    0.00000    0.00000    0.00000    1    diag,B
    3      0.132D+01      0.282D+00      -151.80830549    175.630885    0.00000    0.00000    0.00000    2    diag,B
    4      0.640D+00      0.314D-01      -151.90314162    177.963562    0.00000    0.00000    0.00000    3    diag,B
    5      0.127D+00      0.821D-02      -151.91688526    178.459208    0.00000    0.00000    0.00000    4    diag,B
    6      0.697D-01      0.253D-02      -151.91894948    178.729144    0.00000    0.00000    0.00000    5    diag,B
    7      0.302D-01      0.584D-03      -151.91907235    178.772364    0.00000    0.00000    0.00000    6    fixocc
    8      0.466D-02      0.166D-03      -151.91908584    178.765351    0.00000    0.00000    0.00000    7    diag,B
    9      0.321D-02      0.392D-04      -151.91908660    178.764816    0.00000    0.00000    0.00000    8    diag,B
   10      0.293D-03      0.132D-04      -151.91908667    178.765978    0.00000    0.00000    0.00000    9    orth
   11      0.258D-03      0.893D-06      -151.91908667    178.766087    0.00000    0.00000    0.00000    9    diag,B
   12      0.132D-04      0.130D-06      -151.91908667    178.766087    0.00000    0.00000    0.00000    9    diag,B
   13      0.114D-05      0.188D-07      -151.91908667    178.766085    0.00000    0.00000    0.00000    0    orth

 Final alpha occupancy:   2   2   2   0   2   0   0   0
 Final beta  occupancy:   2   2   1   0   1   0   0   0

 !RHF STATE 1.7 Energy               -151.919086672597
 Nuclear energy                         0.00000000
 One-electron energy                 -241.30212919
 Two-electron energy                   89.38304252
 Virial quotient                       -1.27009587
 !RHF STATE 1.7 Dipole moment           0.00000000     0.00000000     0.00000000
 Dipole moment /Debye                   0.00000000     0.00000000     0.00000000
 

 !RHF expec          <1.7|EKIN|1.7>   119.612298855620
 
 !RHF expec           <1.7|POT|1.7>   -26.327897895941

 ELECTRON ORBITALS
 =================


   Orb  Occ    Energy  Couls-En    Coefficients

                                   1 1s      1 1s      1 1s      1 1s      1 1s      1 1s      1 1s      1 1s      1 3d0     1 3d2+ 
                                   1 3d0     1 3d2+    1 3d0     1 3d2+    1 3d0     1 3d2+    1 3d0     1 3d2+    1 3d0     1 3d2+ 
                                   1 5g0     1 5g4+    1 5g2+    1 5g0     1 5g4+    1 5g2+ 

   1.1   2    -9.0515  -34.2715  1.000092  0.000414 -0.000010  0.000012  0.000118 -0.000002 -0.000312 -0.000165  0.000014 -0.000024
                                -0.000013  0.000022  0.000367 -0.000635  0.000317 -0.000550 -0.000199  0.000345  0.000012 -0.000021
                                 0.000000  0.000000 -0.000000  0.000000  0.000000 -0.000000

   2.1   2    -0.8846   -9.5166  0.001082  1.002922  0.000053 -0.000082  0.000544 -0.000219 -0.001891 -0.001387 -0.000000  0.000001
                                 0.000026 -0.000046 -0.000050  0.000086 -0.000606  0.001049  0.000571 -0.000988 -0.003368  0.005834
                                -0.000000 -0.000000  0.000000 -0.000005 -0.000010  0.000007

                                   1 2px     1 2px     1 2px     1 2px     1 2px     1 2px     1 2px     1 2px     1 4f1+    1 4f3+ 
                                   1 4f1+    1 4f3+    1 4f1+    1 4f3+    1 4f1+    1 4f3+ 

   1.2   2    -6.8165  -30.9000  1.001979  0.000794 -0.000034  0.000003 -0.000331 -0.001795 -0.000652  0.000088 -0.000003  0.000004
                                 0.000251 -0.000324  0.000255 -0.000329 -0.000139  0.000179

   2.2   2    -0.3971   -7.6138 -0.022674  1.072492 -0.000192 -0.000128 -0.002007  0.001411  0.018696  0.062283  0.000008 -0.000010
                                -0.000025  0.000032 -0.001750  0.002259 -0.004647  0.005999

                                   1 2py     1 2py     1 2py     1 2py     1 2py     1 2py     1 2py     1 2py     1 4f1-    1 4f3- 
                                   1 4f1-    1 4f3-    1 4f1-    1 4f3-    1 4f1-    1 4f3- 

   1.3   2    -6.8192  -30.8871  0.998959  0.000474  0.000032  0.000001  0.000192  0.000900  0.000339 -0.000030 -0.000001  0.000004
                                 0.000084 -0.000324  0.000086 -0.000332 -0.000046  0.000177

   2.3   +    -0.4800   -7.8429  0.021825  0.925076  0.000100  0.000189  0.001717 -0.000935 -0.020158 -0.063314  0.000005 -0.000021
                                -0.000017  0.000066 -0.001419  0.005495 -0.003237  0.012536

                                   1 2pz     1 2pz     1 2pz     1 2pz     1 2pz     1 2pz     1 2pz     1 2pz     1 4f0     1 4f2+ 
                                   1 4f0     1 4f2+    1 4f0     1 4f2+    1 4f0     1 4f2+ 

   1.5   2    -6.8192  -30.8871  0.998959  0.000474  0.000032  0.000001  0.000192  0.000900  0.000339 -0.000030 -0.000003  0.000003
                                 0.000205 -0.000265  0.000210 -0.000271 -0.000112  0.000144

   2.5   +    -0.4800   -7.8429  0.021825  0.925076  0.000100  0.000189  0.001717 -0.000935 -0.020158 -0.063314  0.000013 -0.000017
                                -0.000042  0.000054 -0.003476  0.004487 -0.007929  0.010236

 HOMO      2.2    -0.397123 =     -10.8063eV
 LUMO      3.1     0.367147 =       9.9906eV
 LUMO-HOMO         0.764270 =      20.7968eV


 **********************************************************************************************************************************
 DATASETS  * FILE   NREC   LENGTH (MB)   RECORD NAMES
              1      20       30.72       500      610      700      900      950      970     1000      129      960     1100   
                                          VAR    BASINP    GEOM    SYMINP    ZMAT    AOBASIS   BASIS     P2S    ABASIS      S 
                                         1400     1410     1420     1200     1210     1080     1600     1650     1300     1700   
                                         EKIN       V       ECP      H0       H01     AOSYM     SMH    MOLCAS    ERIS     OPER   

              2       4        2.81       700     1000      520     4202   
                                         GEOM     BASIS   MCVARS     RHF  

 PROGRAMS   *        TOTAL       RHF       INT
 CPU TIMES  *         1.95      0.17      1.68
 REAL TIME  *        21.47 SEC
 DISK USED  *        60.87 MB      
 **********************************************************************************************************************************


 PROGRAM * MULTI (Direct Multiconfiguration SCF)       Authors: P.J. Knowles, H.-J. Werner (1984)     S.T. Elbert (1988)


 Number of closed-shell orbitals:   5 (   2   1   1   0   1   0   0   0 )
 Number of active  orbitals:        3 (   0   1   1   0   1   0   0   0 )
 Number of external orbitals:     100 (  24  14  14  10  14  10  10   4 )

 State symmetry 1

 Number of electrons:     4    Spin symmetry=Triplet   Space symmetry=4
 Number of states:        1
 Number of CSFs:          1   (1 determinants, 3 intermediate states)

 State symmetry 2

 Number of electrons:     4    Spin symmetry=Triplet   Space symmetry=6
 Number of states:        1
 Number of CSFs:          1   (1 determinants, 3 intermediate states)

 State symmetry 3

 Number of electrons:     4    Spin symmetry=Triplet   Space symmetry=7
 Number of states:        1
 Number of CSFs:          1   (1 determinants, 3 intermediate states)

 Iteration controls:
             1  2  3  4  5  6  7  8  9 10 11 12 13 14 15 16 17 18 19 20 21 22 23 24 25 26 27 28 29 30 31 32 33 34 35 36 37 38 39
 DIAGCI      T  T  T  T  T  T  T  T  T  T  T  T  T  T  T  T  T  T  T  T  T  T  T  T  T  T  T  T  T  T  T  T  T  T  T  T  T  T  T
 WERNER      T  T  T  T  T  T  T  T  T  T  T  T  T  T  T  T  T  T  T  T  T  T  T  T  T  T  T  T  T  T  T  T  T  T  T  T  T  T  T
 INTERNAL    F  T  T  T  T  T  T  T  T  T  T  T  T  T  T  T  T  T  T  T  T  T  T  T  T  T  T  T  T  T  T  T  T  T  T  T  T  T  T

 Molecular orbitals read from record     4202.2  Type=RHF/CANONICAL (state 1.7)
 *** IN SYMMETRY 1 ORBITAL  1 SYMMETRY CONTAMINATION OF 0.251D-02 HAS BEEN REMOVED
 *** IN SYMMETRY 1 ORBITAL  2 SYMMETRY CONTAMINATION OF 0.124D-01 HAS BEEN REMOVED

 EXTRA SYMMETRY OF MOS IN SYMMETRY 1:   1 1 2 1 1 2 3 1 4 2   5 3 3 1 2 3 1 2 3 1   4 5 6 2 3 6
 *** IN SYMMETRY 2 ORBITAL  1 SYMMETRY CONTAMINATION OF 0.147D-02 HAS BEEN REMOVED
 *** IN SYMMETRY 2 ORBITAL  2 SYMMETRY CONTAMINATION OF 0.123D-01 HAS BEEN REMOVED
 EXTRA SYMMETRY OF MOS IN SYMMETRY 2:   1 1 1 2 3 1 2 3 1 2   3 1 1 2 3 1
 *** IN SYMMETRY 3 ORBITAL  1 SYMMETRY CONTAMINATION OF 0.105D-02 HAS BEEN REMOVED
 *** IN SYMMETRY 3 ORBITAL  2 SYMMETRY CONTAMINATION OF 0.216D-01 HAS BEEN REMOVED
 EXTRA SYMMETRY OF MOS IN SYMMETRY 3:   1 1 1 2 3 1 2 3 1 2   3 1 1 2 3 1
 EXTRA SYMMETRY OF MOS IN SYMMETRY 4:   1 1 2 3 1 1 1 2 3 1
 *** IN SYMMETRY 5 ORBITAL  1 SYMMETRY CONTAMINATION OF 0.121D-02 HAS BEEN REMOVED
 *** IN SYMMETRY 5 ORBITAL  2 SYMMETRY CONTAMINATION OF 0.248D-01 HAS BEEN REMOVED
 EXTRA SYMMETRY OF MOS IN SYMMETRY 5:   1 1 1 2 3 1 2 3 1 2   3 1 1 2 3 1
 EXTRA SYMMETRY OF MOS IN SYMMETRY 6:   1 1 3 2 1 1 1 3 2 1
 EXTRA SYMMETRY OF MOS IN SYMMETRY 7:   1 1 2 3 1 1 1 2 3 1

 Wavefunction dump at record             5202.2

 Convergence thresholds  0.10E-01 (gradient)  0.10E-05 (energy)  0.10E-02 (step length)

 Weight factors for state symmetry  1:    0.33333
 Weight factors for state symmetry  2:    0.33333
 Weight factors for state symmetry  3:    0.33333

 Number of orbital rotations:      135   (     3 Core/Active     90 Core/Virtual   0 Active/Active     42 Active/Virtual)
 Total number of variables:        138


 ITER. MIC  NCI  NEG     ENERGY(VAR)     ENERGY(PROJ)   ENERGY CHANGE     GRAD(0)  GRAD(ORB)   GRAD(CI)     STEP       TIME

   1   16   21    0    -151.91584904    -151.91681174   -0.00096270    0.04680094 0.00000000 0.00000000  0.34D-01      0.04
   2   14   15    0    -151.91681399    -151.91681401   -0.00000002    0.00015791 0.00000000 0.00000000  0.14D-03      0.08
   3   15   15    0    -151.91681401    -151.91681401   -0.00000000    0.00000001 0.00000000 0.00000000  0.39D-08      0.11

 ** WVFN ****  CONVERGENCE REACHED, FINAL GRADIENT:  0.49D-11



 Results for state 1.4
 =====================

 !MCSCF STATE 1.4 Energy             -151.916814005568
 Nuclear energy                         0.00000000
 Kinetic energy                       119.60862178
 One electron energy                 -241.30227073
 Two electron energy                   89.38545672
 Virial ratio                           2.27011591

 !MCSCF STATE 1.4 Dipole moment         0.00000000     0.00000000     0.00000000
 Dipole moment /Debye                   0.00000000     0.00000000     0.00000000



 Results for state 1.6
 =====================

 !MCSCF STATE 1.6 Energy             -151.916814005568
 Nuclear energy                         0.00000000
 Kinetic energy                       119.60862178
 One electron energy                 -241.30227073
 Two electron energy                   89.38545672
 Virial ratio                           2.27011591

 !MCSCF STATE 1.6 Dipole moment         0.00000000     0.00000000     0.00000000
 Dipole moment /Debye                   0.00000000     0.00000000     0.00000000



 Results for state 1.7
 =====================

 !MCSCF STATE 1.7 Energy             -151.916814005568
 Nuclear energy                         0.00000000
 Kinetic energy                       119.60862178
 One electron energy                 -241.30227073
 Two electron energy                   89.38545672
 Virial ratio                           2.27011591

 !MCSCF STATE 1.7 Dipole moment         0.00000000     0.00000000     0.00000000
 Dipole moment /Debye                   0.00000000     0.00000000     0.00000000

 State-averaged charge density matrix saved on record  5202.2 (density set 1)

 !MCSCF expec        <1.4|EKIN|1.4>   119.608621778201
 !MCSCF expec        <1.6|EKIN|1.6>   119.608621778201
 !MCSCF expec        <1.7|EKIN|1.7>   119.608621778201

 !MCSCF expec         <1.4|POT|1.4>   -26.327651757730
 !MCSCF expec         <1.6|POT|1.6>   -26.327651757730
 !MCSCF expec         <1.7|POT|1.7>   -26.327651757730


 NATURAL ORBITALS (state averaged)
 =================================

   Orb     Occ        Energy       Coefficients

                                   1 1s      1 1s      1 1s      1 1s      1 1s      1 1s      1 1s      1 1s      1 3d0     1 3d2+ 
                                   1 3d0     1 3d2+    1 3d0     1 3d2+    1 3d0     1 3d2+    1 3d0     1 3d2+    1 3d0     1 3d2+ 
                                   1 5g0     1 5g4+    1 5g2+    1 5g0     1 5g4+    1 5g2+ 

   1.1  2.00000    -9.051679     1.000092  0.000405 -0.000010  0.000012  0.000116 -0.000008 -0.000303 -0.000160  0.000000  0.000000
                                 0.000000  0.000000  0.000000  0.000000  0.000000  0.000000  0.000000  0.000000  0.000000  0.000000
                                 0.000000  0.000000  0.000000  0.000000  0.000000  0.000000

   2.1  2.00000    -0.884625     0.001089  1.002957  0.000052 -0.000080  0.000540 -0.000153 -0.002057 -0.001283  0.000000  0.000000
                                 0.000000  0.000000  0.000000  0.000000  0.000000  0.000000  0.000000  0.000000  0.000000  0.000000
                                 0.000000  0.000000  0.000000  0.000000  0.000000  0.000000

                                   1 2px     1 2px     1 2px     1 2px     1 2px     1 2px     1 2px     1 2px     1 4f1+    1 4f3+ 
                                   1 4f1+    1 4f3+    1 4f1+    1 4f3+    1 4f1+    1 4f3+ 

   1.2  2.00000    -6.818483     0.999972 -0.000001  0.000010  0.000002  0.000017  0.000002  0.000002 -0.000002  0.000000  0.000000
                                 0.000000  0.000000  0.000000  0.000000  0.000000  0.000000

   2.2  1.33333    -0.282862     0.000051  1.000011 -0.000020 -0.000004 -0.000032 -0.000005 -0.000002  0.000010  0.000000  0.000000
                                 0.000000  0.000000  0.000000  0.000000  0.000000  0.000000

                                   1 2py     1 2py     1 2py     1 2py     1 2py     1 2py     1 2py     1 2py     1 4f1-    1 4f3- 
                                   1 4f1-    1 4f3-    1 4f1-    1 4f3-    1 4f1-    1 4f3- 

   1.3  2.00000    -6.818483     0.999972 -0.000001  0.000010  0.000002  0.000017  0.000002  0.000002 -0.000002  0.000000  0.000000
                                 0.000000  0.000000  0.000000  0.000000  0.000000  0.000000

   2.3  1.33333    -0.282862     0.000051  1.000011 -0.000020 -0.000004 -0.000032 -0.000005 -0.000002  0.000010  0.000000  0.000000
                                 0.000000  0.000000  0.000000  0.000000  0.000000  0.000000

                                   1 2pz     1 2pz     1 2pz     1 2pz     1 2pz     1 2pz     1 2pz     1 2pz     1 4f0     1 4f2+ 
                                   1 4f0     1 4f2+    1 4f0     1 4f2+    1 4f0     1 4f2+ 

   1.5  2.00000    -6.818483     0.999972 -0.000001  0.000010  0.000002  0.000017  0.000002  0.000002 -0.000002  0.000000  0.000000
                                 0.000000  0.000000  0.000000  0.000000  0.000000  0.000000

   2.5  1.33333    -0.282862     0.000051  1.000011 -0.000020 -0.000004 -0.000032 -0.000005 -0.000002  0.000010  0.000000  0.000000
                                 0.000000  0.000000  0.000000  0.000000  0.000000  0.000000

 Total charge:  -8.000000000000
 

 EXTRA SYMMETRY OF MOS IN SYMMETRY 1:   1 1 1 2 3 3 2 1 4 6   5 3 2 1 3 2 1 3 2 1   5 6 4 3 2 1
 EXTRA SYMMETRY OF MOS IN SYMMETRY 2:   1 1 1 2 3 1 2 3 1 3   2 1 1 2 3 1
 EXTRA SYMMETRY OF MOS IN SYMMETRY 3:   1 1 1 2 3 1 2 3 1 3   2 1 1 2 3 1
 EXTRA SYMMETRY OF MOS IN SYMMETRY 4:   1 1 2 3 1 1 1 3 2 1
 EXTRA SYMMETRY OF MOS IN SYMMETRY 5:   1 1 1 3 2 1 3 2 1 3   2 1 1 3 2 1
 EXTRA SYMMETRY OF MOS IN SYMMETRY 7:   1 1 3 2 1 1 1 3 2 1

 Natural orbital dump (state averaged) at molpro section  5202.2    (Orbital set 2)


 CI vector for state symmetry 1
 ==============================

 a a 2           1.0000000

 TOTAL ENERGIES                      -151.91681401

 CI vector for state symmetry 2
 ==============================

 a 2 a           1.0000000

 TOTAL ENERGIES                      -151.91681401

 CI vector for state symmetry 3
 ==============================

 2 a a           1.0000000

 TOTAL ENERGIES                      -151.91681401



 **********************************************************************************************************************************
 DATASETS  * FILE   NREC   LENGTH (MB)   RECORD NAMES
              1      21       31.43       500      610      700      900      950      970     1000      129      960     1100   
                                          VAR    BASINP    GEOM    SYMINP    ZMAT    AOBASIS   BASIS     P2S    ABASIS      S 
                                         1400     1410     1420     1200     1210     1080     1600     1650     1300     1700   
                                         EKIN       V       ECP      H0       H01     AOSYM     SMH    MOLCAS    ERIS     OPER   
                                         1380   
                                         JKOP   

              2       5        5.37       700     1000      520     4202     5202   
                                         GEOM     BASIS   MCVARS     RHF     MCSCF   

 PROGRAMS   *        TOTAL     MULTI       RHF       INT
 CPU TIMES  *         2.11      0.15      0.17      1.68
 REAL TIME  *        23.01 SEC
 DISK USED  *        60.87 MB      
 **********************************************************************************************************************************


 PROGRAM * RHF-SCF (OPEN SHELL)       Authors: W. Meyer, H.-J. Werner


 NUMBER OF ELECTRONS:       8+    6-    SPACE SYMMETRY=7    SPIN SYMMETRY: Triplet 
 CONVERGENCE THRESHOLDS:    1.00E-05 (Density)    1.00E-07 (Energy)
 MAX. NUMBER OF ITERATIONS:        0
 INTERPOLATION TYPE:            DIIS
 INTERPOLATION STEPS:              2 (START)      1 (STEP)
 LEVEL SHIFTS:                 -0.60 (CLOSED) -0.30 (OPEN) 

 Number of closed-shell orbitals:    6 (   2   2   1   0   1   0   0   0 )
 Number of open-shell orbitals:      2 (   0   0   1   0   1   0   0   0 )


 Molecular orbitals read from record     5202.2  Type=MCSCF/NATURAL (state averaged)

 Molecular orbital dump at record        2101.2

 ITERATION    DDIFF          GRAD             ENERGY        2-EL.EN.            DIPOLE MOMENTS         DIIS   ORB.
    1      0.000D+00      0.000D+00      -151.91681401    178.770913    0.00000    0.00000    0.00000    0    start

 Final alpha occupancy:   2   2   2   0   2   0   0   0
 Final beta  occupancy:   2   2   1   0   1   0   0   0

 !RHF STATE 1.7 Energy               -151.916814005769
 Nuclear energy                         0.00000000
 One-electron energy                 -241.30227073
 Two-electron energy                   89.38545672
 Virial quotient                       -1.27011591
 !RHF STATE 1.7 Dipole moment           0.00000000     0.00000000     0.00000000
 Dipole moment /Debye                   0.00000000     0.00000000     0.00000000
 

 !RHF expec          <1.7|EKIN|1.7>   119.608621778201
 
 !RHF expec           <1.7|POT|1.7>   -26.327651757730

 ELECTRON ORBITALS
 =================


   Orb  Occ    Energy  Couls-En    Coefficients

                                   1 1s      1 1s      1 1s      1 1s      1 1s      1 1s      1 1s      1 1s      1 3d0     1 3d2+ 
                                   1 3d0     1 3d2+    1 3d0     1 3d2+    1 3d0     1 3d2+    1 3d0     1 3d2+    1 3d0     1 3d2+ 
                                   1 5g0     1 5g4+    1 5g2+    1 5g0     1 5g4+    1 5g2+ 

   1.1   2    -9.0517  -34.2717  1.000092  0.000405 -0.000010  0.000012  0.000116 -0.000008 -0.000303 -0.000160  0.000000  0.000000
                                 0.000000  0.000000  0.000000  0.000000  0.000000  0.000000  0.000000  0.000000  0.000000  0.000000
                                 0.000000  0.000000  0.000000  0.000000  0.000000  0.000000

   2.1   2    -0.8846   -9.5167  0.001089  1.002957  0.000052 -0.000080  0.000540 -0.000153 -0.002057 -0.001283  0.000000  0.000000
                                 0.000000  0.000000  0.000000  0.000000  0.000000  0.000000  0.000000  0.000000  0.000000  0.000000
                                 0.000000  0.000000  0.000000  0.000000  0.000000  0.000000

                                   1 2px     1 2px     1 2px     1 2px     1 2px     1 2px     1 2px     1 2px     1 4f1+    1 4f3+ 
                                   1 4f1+    1 4f3+    1 4f1+    1 4f3+    1 4f1+    1 4f3+ 

   1.2   2    -6.8185  -30.8902  0.999972 -0.000001  0.000010  0.000002  0.000017  0.000002  0.000002 -0.000002  0.000000  0.000000
                                 0.000000  0.000000  0.000000  0.000000  0.000000  0.000000

   2.2   2    -0.2829   -7.5747  0.000051  1.000011 -0.000020 -0.000004 -0.000032 -0.000005 -0.000002  0.000010  0.000000  0.000000
                                 0.000000  0.000000  0.000000  0.000000  0.000000  0.000000

                                   1 2py     1 2py     1 2py     1 2py     1 2py     1 2py     1 2py     1 2py     1 4f1-    1 4f3- 
                                   1 4f1-    1 4f3-    1 4f1-    1 4f3-    1 4f1-    1 4f3- 

   1.3   2    -6.8185  -30.8902  0.999972 -0.000001  0.000010  0.000002  0.000017  0.000002  0.000002 -0.000002  0.000000  0.000000
                                 0.000000  0.000000  0.000000  0.000000  0.000000  0.000000

   2.3   +    -0.2829   -7.5747  0.000051  1.000011 -0.000020 -0.000004 -0.000032 -0.000005 -0.000002  0.000010  0.000000  0.000000
                                 0.000000  0.000000  0.000000  0.000000  0.000000  0.000000

                                   1 2pz     1 2pz     1 2pz     1 2pz     1 2pz     1 2pz     1 2pz     1 2pz     1 4f0     1 4f2+ 
                                   1 4f0     1 4f2+    1 4f0     1 4f2+    1 4f0     1 4f2+ 

   1.5   2    -6.8185  -30.8902  0.999972 -0.000001  0.000010  0.000002  0.000017  0.000002  0.000002 -0.000002  0.000000  0.000000
                                 0.000000  0.000000  0.000000  0.000000  0.000000  0.000000

   2.5   +    -0.2829   -7.5747  0.000051  1.000011 -0.000020 -0.000004 -0.000032 -0.000005 -0.000002  0.000010  0.000000  0.000000
                                 0.000000  0.000000  0.000000  0.000000  0.000000  0.000000

 HOMO      2.2    -0.282862 =      -7.6971eV
 LUMO      3.1     0.393293 =      10.7020eV
 LUMO-HOMO         0.676155 =      18.3991eV


 **********************************************************************************************************************************
 DATASETS  * FILE   NREC   LENGTH (MB)   RECORD NAMES
              1      21       31.43       500      610      700      900      950      970     1000      129      960     1100   
                                          VAR    BASINP    GEOM    SYMINP    ZMAT    AOBASIS   BASIS     P2S    ABASIS      S 
                                         1400     1410     1420     1200     1210     1080     1600     1650     1300     1700   
                                         EKIN       V       ECP      H0       H01     AOSYM     SMH    MOLCAS    ERIS     OPER   
                                         1380   
                                         JKOP   

              2       6        7.94       700     1000      520     4202     5202     2101   
                                         GEOM     BASIS   MCVARS     RHF     MCSCF     RHF  

 PROGRAMS   *        TOTAL       RHF     MULTI       RHF       INT
 CPU TIMES  *         2.14      0.02      0.15      0.17      1.68
 REAL TIME  *        23.19 SEC
 DISK USED  *        60.87 MB      
 **********************************************************************************************************************************
 SETTING SCF(I)         =      -151.91681401  AU                              
 SETTING _CC_NORM_MAX   =         2.00000000                                  


 PROGRAM * CI (Multireference internally contracted CI)     Authors: H.-J. Werner, P.J. Knowles, 1987


 Convergence thresholds:  THRVAR = 1.00D-08  THRDEN = 1.00D-06

 Number of optimized states:  1  Roots:   1
 Number of reference states:  1  Roots:   1

 Reference symmetry:                   7   Triplet 
 Number of electrons:                 14
 Maximum number of shells:             3
 Maximum number of spin couplings:     9

 Reference space:        1 conf        1 CSFs
 N elec internal:       28 conf       28 CSFs
 N-1 el internal:       62 conf      134 CSFs
 N-2 el internal:       34 conf      190 CSFs

 Number of electrons in valence space:                     14
 Maximum number of open shell orbitals in reference space:  2
 Maximum number of open shell orbitals in internal spaces:  6


 Number of closed-shell orbitals:   6 (   2   2   1   0   1   0   0   0 )
 Number of active  orbitals:        2 (   0   0   1   0   1   0   0   0 )
 Number of external orbitals:     100 (  24  14  14  10  14  10  10   4 )

 Molecular orbitals read from record     2101.2  Type=RHF/CANONICAL (state 1.7)

 Coulomb and exchange operators available. No transformation done.

 Number of p-space configurations:   1

 Reference wavefunction optimized for reference space (refopt=1)

 State     Reference Energy 
   1        -151.91681401

 Number of blocks in overlap matrix:    61   Smallest eigenvalue:  0.10D+01
 Number of N-2 electron functions:      61
 Number of N-1 electron functions:     134

 Number of internal configurations:                    4
 Number of singly external configurations:          1736
 Number of doubly external configurations:         40020
 Total number of contracted configurations:        41760
 Total number of uncontracted configurations:     125112

 Diagonal Coupling coefficients finished.               Storage:    9329 words, CPU-Time:      0.00 seconds.
 Energy denominators for pairs finished in 1 passes.    Storage:   30913 words, CPU-time:      0.00 seconds.

  ITER. STATE  ROOT     SQ.NORM     CORR.ENERGY   TOTAL ENERGY   ENERGY CHANGE       DEN1      VAR(S)    VAR(P)      TIME
    1     1     1     1.00000000     0.00000000  -151.91681401    -0.00000000    -0.50029082  0.35D-01  0.63D-01     0.02
    2     1     1     1.07768818    -0.44616650  -152.36298051    -0.44616650    -0.00880139  0.20D-02  0.12D-02     0.10
    3     1     1     1.06157643    -0.45451032  -152.37132433    -0.00834382    -0.00007409  0.68D-05  0.11D-04     0.18
    4     1     1     1.06114530    -0.45458704  -152.37140104    -0.00007672    -0.00000127  0.41D-06  0.13D-06     0.24
    5     1     1     1.06119323    -0.45458838  -152.37140239    -0.00000134    -0.00000003  0.60D-08  0.58D-08     0.33
    6     1     1     1.06119165    -0.45458842  -152.37140242    -0.00000004    -0.00000000  0.25D-09  0.15D-09     0.39


 =====================================
 Analysis of CPU times by interactions
 =====================================

       I      S      P

 I   0.0%
 S   0.0%   7.7%
 P   0.0%   5.1%  23.1%

 Initialization:   5.1%
 Other:           59.0%

 Total CPU:        0.4 seconds
 =====================================



 Reference coefficients greater than 0.0500000
 =============================================
 22222/2/           0.9707383



 RESULTS FOR STATE 1.7
 =====================

 Coefficient of reference function:   C(0) = 0.97073833 (fixed)   0.97073833 (relaxed)

 Energy contributions of configuration classes

 CLASS          SQ.NORM        ECORR1        ECORR2
 +++++++++++++++++++++++++++++++++++++++++++++++++++
 Internals    0.00000418   -0.00003927   -0.00003880
 Singles      0.01834616   -0.04235214   -0.04776958
 Pairs        0.04284575   -0.41219701   -0.40678005
 Total        1.06119609   -0.45458842   -0.45458842
 +++++++++++++++++++++++++++++++++++++++++++++++++++


 Reference energy                    -151.91681401
 Nuclear energy                         0.00000000
 Kinetic energy                       119.98412567
 One electron energy                 -241.08254365
 Two electron energy                   88.71114123
 Virial quotient                       -1.26992968
 Correlation energy                    -0.45458842
 !CI(SD) STATE 1.7 Energy            -152.371402424500

 Properties without orbital relaxation:

 !CI(SD) STATE 1.7 Dipole moment        0.00000000     0.00000000     0.00000000
 Dipole moment /Debye                   0.00000000     0.00000000     0.00000000

 Cluster corrected energies          -152.39922146 (Davidson, fixed reference)
 Cluster corrected energies          -152.39922146 (Davidson, relaxed reference)

 Cluster corrected energies          -152.39555732 (Pople, fixed reference)
 Cluster corrected energies          -152.39555732 (Pople, relaxed reference)

 

 !CI(SD) expec       <1.7|EKIN|1.7>   119.984125668134
 
 !CI(SD) expec        <1.7|POT|1.7>   -26.339553834710


 **********************************************************************************************************************************
 DATASETS  * FILE   NREC   LENGTH (MB)   RECORD NAMES
              1      21       31.43       500      610      700      900      950      970     1000      129      960     1100   
                                          VAR    BASINP    GEOM    SYMINP    ZMAT    AOBASIS   BASIS     P2S    ABASIS      S 
                                         1400     1410     1420     1200     1210     1080     1600     1650     1300     1700   
                                         EKIN       V       ECP      H0       H01     AOSYM     SMH    MOLCAS    ERIS     OPER   
                                         1380   
                                         JKOP   

              2       6        7.94       700     1000      520     4202     5202     2101   
                                         GEOM     BASIS   MCVARS     RHF     MCSCF     RHF  

 PROGRAMS   *        TOTAL        CI       RHF     MULTI       RHF       INT
 CPU TIMES  *         2.57      0.43      0.02      0.15      0.17      1.68
 REAL TIME  *        24.34 SEC
 DISK USED  *        60.87 MB      
 **********************************************************************************************************************************
 SETTING POSTHF(I)      =      -152.37140242  AU                              
                                                                                                                                                                                                                                                                

         SCF            POSTHF        EKIN          POT
    -151.9168140   -152.3714024   119.9841257   -26.33955383
                                                  

 CI/USERDEF energy=   -152.371402424500

        CI              RHF-SCF         MULTI           RHF-SCF 
   -152.37140242   -151.91681401   -151.91681401   -151.91908667
 **********************************************************************************************************************************
 Molpro calculation terminated
 Variable memory released
