
 Primary working directories    : /global/cscratch1/sd/aannabe
 Secondary working directories  : /global/cscratch1/sd/aannabe
 Wavefunction directory         : /global/homes/a/aannabe/wfu/
 Main file repository           : /global/cscratch1/sd/aannabe/

 SHA1      : 2873118e99aab1bc19f5b6fc1784693c06d15c95
 NAME      : 2015.1.8
 ARCHNAME  : linux/x86_64
 FC        : /opt/cray/pe/craype/2.5.5/bin/ftn
 BLASLIB   : -Wl,-_start-group /opt/intel/compilers_and_libraries_2016.3.210/linux/mkl/lib/intel64/libmkl_intel_ilp64.a /opt/intel/compilers_and_libraries_2016.3.210/linux/mkl/lib/intel64/libmkl_intel_thread.a /opt/intel/compilers_and_libraries_2016.3.210/linux/mkl/lib/intel64/libmkl_core.a -Wl,-_end-group
 id        : lbl

 Nodes     nprocs
 nid00458     1

 Using customized tuning parameters: mindgm=8; mindgv=16; mindgc=4; mindgr=1; noblas=0; minvec=7
 default implementation of scratch files=df  

 ***,Mn
 memory,512,m
 gthresh,twoint=1.e-12
 
 gprint,basis,orbitals
 gexpec,ekin,pot
 
 angstrom
 geometry={
 1                                                                               ! Number of atoms
 Mn 0.0 0.0 0.0
 }
 
 basis={
 Including file /global/homes/a/aannabe/docs/totals/pps/Mn.pp
 Including file /global/homes/a/aannabe/docs/totals/basis/aug-cc-pVnZ/Mn_qz.basis
 }
 
 {hf
 wf,15,1,5
 occ,4,1,1,1,1,1,1,0
 open,3.1,4.1,1.4,1.6,1.7
 sym,1,1,1,3,2
 }
 scf(i)=energy
 
 _CC_NORM_MAX=2.0
 {rccsd(t)
 maxit,100
 core
 }
 posthf(i)=energy
 
 table,scf,posthf,ekin,pot
 save,4.csv,new
 
 

 Variables initialized (889), CPU time= 0.00 sec
 Commands  initialized (702), CPU time= 0.01 sec, 572 directives.
 Default parameters read. Elapsed time= 0.22 sec

 Checking input...
 Passed
1


                                         ***  PROGRAM SYSTEM MOLPRO  ***
                                       Copyright, TTI GmbH Stuttgart, 2015
                                    Version 2015.1 linked Sep  7 2016 23:09:38


 **********************************************************************************************************************************
 LABEL *   Mn                                                                            
  64 bit serial version                                                                  DATE: 12-Jun-18          TIME: 14:02:28  
 **********************************************************************************************************************************

 SHA1:             2873118e99aab1bc19f5b6fc1784693c06d15c95
 **********************************************************************************************************************************

 THRESHOLDS:

 ZERO    =  1.00D-12  ONEINT  =  1.00D-12  TWOINT  =  1.00D-12  PREFAC  =  1.00D-14  LOCALI  =  1.00D-09  EORDER  =  1.00D-04
 ENERGY  =  0.00D+00  ETEST   =  0.00D+00  EDENS   =  0.00D+00  THRDEDEF=  1.00D-06  GRADIENT=  1.00D-02  STEP    =  1.00D-03
 ORBITAL =  1.00D-05  CIVEC   =  1.00D-05  COEFF   =  1.00D-04  PRINTCI =  5.00D-02  PUNCHCI =  9.90D+01  OPTGRAD =  3.00D-04
 OPTENERG=  1.00D-06  OPTSTEP =  3.00D-04  THRGRAD =  1.00D-10  COMPRESS=  1.00D-11  VARMIN  =  1.00D-07  VARMAX  =  1.00D-03
 THRDOUB =  0.00D+00  THRDIV  =  1.00D-05  THRRED  =  1.00D-07  THRPSP  =  1.00D+00  THRDC   =  1.00D-10  THRCS   =  1.00D-10
 THRNRM  =  1.00D-08  THREQ   =  0.00D+00  THRDE   =  1.00D+00  THRREF  =  1.00D-05  SPARFAC =  1.00D+00  THRDLP  =  1.00D-07
 THRDIA  =  1.00D-10  THRDLS  =  1.00D-07  THRGPS  =  0.00D+00  THRKEX  =  0.00D+00  THRDIS  =  2.00D-01  THRVAR  =  1.00D-10
 THRLOC  =  1.00D-06  THRGAP  =  1.00D-06  THRLOCT = -1.00D+00  THRGAPT = -1.00D+00  THRORB  =  1.00D-06  THRMLTP =  0.00D+00
 THRCPQCI=  1.00D-10  KEXTA   =  0.00D+00  THRCOARS=  0.00D+00  SYMTOL  =  1.00D-06  GRADTOL =  1.00D-06  THROVL  =  1.00D-08
 THRORTH =  1.00D-08  GRID    =  1.00D-06  GRIDMAX =  1.00D-03  DTMAX   =  0.00D+00  THROCCDE=  1.00D-01  THROCCDE=  1.00D-01



 ZUNIT=ANG
 

Geometry recognized as XYZ


 Variable memory set to  512000000 words,  buffer space   230000 words

 SETTING BASIS          =    USERDEF


 Recomputing integrals since basis changed


 Using spherical harmonics



 PROGRAM * SEWARD (Integral evaluation for generally contracted gaussian basis sets)     Author: Roland Lindh, 1990

 Geometry written to block  1 of record 700

 Orientation using atomic masses  
 Molecule type: Atom
 Symmetry elements: X,Y,Z
 Rotational constants:       0.0000000      0.0000000      0.0000000 GHz  (calculated with average atomic masses)

 Point group  D2h 



 ATOMIC COORDINATES

 NR  ATOM    CHARGE       X              Y              Z

   1  MN     15.00    0.000000000    0.000000000    0.000000000


          MN  CORE POTENTIAL

          d POTENTIAL

 POWERS             1              3              2              2
 EXPONENTIALS   21.91937       21.35527       21.27163       7.939140    
 COEFFICIENTS   15.00000       328.7906      -162.0517      -1.826943    

          s - d POTENTIAL

 POWERS             2              2
 EXPONENTIALS   18.92045       8.327648    
 COEFFICIENTS   244.6687       33.54163    

          p - d POTENTIAL

 POWERS             2              2
 EXPONENTIALS   20.17347       7.800479    
 COEFFICIENTS   162.3503       24.17957    


 BASIS DATA

   Nr Sym  Nuc  Type         Exponents   Contraction coefficients

    1.1 Ag    1  1s          76.008334     0.000993   -0.000199   -0.000091   -0.000526    0.004097    0.000000
    2.1 Ag                   39.277974    -0.014796    0.003352    0.005374    0.011380   -0.036353    0.000000
    3.1 Ag                   20.405805     0.120710   -0.029413   -0.058494   -0.116034    0.265708    0.000000
    4.1 Ag                   12.218680    -0.124001    0.032091    0.056345    0.149329   -0.485187    0.000000
    5.1 Ag                    7.182690    -0.320200    0.083152    0.227874    0.360154   -0.232288    0.000000
    6.1 Ag                    3.850780    -0.105622    0.021283   -0.008420    0.025174   -0.241798    0.000000
                              2.142489     0.472721   -0.129989   -0.320777   -1.170125    3.387918    0.000000
                              1.049631     0.620387   -0.239006   -0.813137   -0.872123   -3.268573    0.000000
                              0.508682     0.204553   -0.180315    0.326475    2.550633   -0.837901    0.000000
                              0.192243     0.005924    0.110148    1.447540    0.090343    5.262271    0.000000
                              0.108899    -0.000097    0.404426    0.021321   -2.210588   -4.299847    0.000000
                              0.053425    -0.000185    0.517307   -0.678323    0.470582   -0.445240    0.000000
                              0.025236     0.000061    0.148139   -0.452828    0.832175    1.294026    1.000000
    7.1 Ag    1  1s           0.012000     1.000000
    8.1 Ag    1  3d0        132.688182     0.000030
                             45.266024     0.005294
                             23.267336     0.029143
                             10.605694     0.076775
                              5.074684     0.168551
                              2.469857     0.256832
                              1.205883     0.289891
                              0.590569     0.257154
                              0.292055     0.181726
                              0.149190     0.089986
                              0.076511     0.034595
    9.1 Ag    1  3d2+       132.688182     0.000030
                             45.266024     0.005294
                             23.267336     0.029143
                             10.605694     0.076775
                              5.074684     0.168551
                              2.469857     0.256832
                              1.205883     0.289891
                              0.590569     0.257154
                              0.292055     0.181726
                              0.149190     0.089986
                              0.076511     0.034595
   10.1 Ag    1  3d0        132.688182    -0.000021
                             45.266024    -0.005449
                             23.267336    -0.029032
                             10.605694    -0.079825
                              5.074684    -0.174415
                              2.469857    -0.253404
                              1.205883    -0.174305
                              0.590569     0.045081
                              0.292055     0.345760
                              0.149190     0.263725
                              0.076511     0.371715
   11.1 Ag    1  3d2+       132.688182    -0.000021
                             45.266024    -0.005449
                             23.267336    -0.029032
                             10.605694    -0.079825
                              5.074684    -0.174415
                              2.469857    -0.253404
                              1.205883    -0.174305
                              0.590569     0.045081
                              0.292055     0.345760
                              0.149190     0.263725
                              0.076511     0.371715
   12.1 Ag    1  3d0        132.688182     0.000060
                             45.266024     0.008385
                             23.267336     0.045800
                             10.605694     0.129215
                              5.074684     0.284327
                              2.469857     0.270760
                              1.205883    -0.101591
                              0.590569    -0.580677
                              0.292055    -0.181696
                              0.149190     0.021003
                              0.076511     0.723658
   13.1 Ag    1  3d2+       132.688182     0.000060
                             45.266024     0.008385
                             23.267336     0.045800
                             10.605694     0.129215
                              5.074684     0.284327
                              2.469857     0.270760
                              1.205883    -0.101591
                              0.590569    -0.580677
                              0.292055    -0.181696
                              0.149190     0.021003
                              0.076511     0.723658
   14.1 Ag    1  3d0        132.688182    -0.000037
                             45.266024    -0.010809
                             23.267336    -0.055582
                             10.605694    -0.172053
                              5.074684    -0.381889
                              2.469857    -0.130399
                              1.205883     0.818993
                              0.590569     0.180145
                              0.292055    -0.604720
                              0.149190    -0.733584
                              0.076511     1.058741
   15.1 Ag    1  3d2+       132.688182    -0.000037
                             45.266024    -0.010809
                             23.267336    -0.055582
                             10.605694    -0.172053
                              5.074684    -0.381889
                              2.469857    -0.130399
                              1.205883     0.818993
                              0.590569     0.180145
                              0.292055    -0.604720
                              0.149190    -0.733584
                              0.076511     1.058741
   16.1 Ag    1  3d0        132.688182     0.000000
                             45.266024     0.000000
                             23.267336     0.000000
                             10.605694     0.000000
                              5.074684     0.000000
                              2.469857     0.000000
                              1.205883     0.000000
                              0.590569     0.000000
                              0.292055     0.000000
                              0.149190     0.000000
                              0.076511     1.000000
   17.1 Ag    1  3d2+       132.688182     0.000000
                             45.266024     0.000000
                             23.267336     0.000000
                             10.605694     0.000000
                              5.074684     0.000000
                              2.469857     0.000000
                              1.205883     0.000000
                              0.590569     0.000000
                              0.292055     0.000000
                              0.149190     0.000000
                              0.076511     1.000000
   18.1 Ag    1  3d0          0.034000     1.000000
   19.1 Ag    1  3d2+         0.034000     1.000000
   20.1 Ag    1  5g0          0.244611     1.000000
   21.1 Ag    1  5g4+         0.244611     1.000000
   22.1 Ag    1  5g2+         0.244611     1.000000
   23.1 Ag    1  5g0          0.893773     1.000000
   24.1 Ag    1  5g4+         0.893773     1.000000
   25.1 Ag    1  5g2+         0.893773     1.000000
   26.1 Ag    1  5g0          3.265719     1.000000
   27.1 Ag    1  5g4+         3.265719     1.000000
   28.1 Ag    1  5g2+         3.265719     1.000000
    1.2 B3u   1  2px        113.479709     0.000103    0.000019   -0.000197    0.000014   -0.000214    0.000000
    2.2 B3u                  58.160819    -0.000894   -0.000024    0.001354    0.000421    0.001869    0.000000
    3.2 B3u                  30.043076     0.008844   -0.001224   -0.010102   -0.008573   -0.014399    0.000000
    4.2 B3u                  16.753323    -0.019685    0.002320    0.030603    0.038797    0.088663    0.000000
    5.2 B3u                  10.705604    -0.069190    0.020758    0.046200    0.099338    0.116117    0.000000
    6.2 B3u                   5.557903     0.011508   -0.011572   -0.017588   -0.144445   -0.476665    0.000000
                              3.080151     0.282313   -0.062919   -0.395920   -0.821182   -1.471896    0.000000
                              1.582963     0.438678   -0.136754   -0.419093   -0.250785    2.463635    0.000000
                              0.810922     0.309843   -0.067295    0.075017    1.790170    0.102508    0.000000
                              0.413396     0.083945   -0.031024    1.092986   -0.399547   -2.774601    0.000000
                              0.195480     0.007517    0.378981    0.008680   -1.294382    2.436254    0.000000
                              0.072688     0.001100    0.507824   -0.756369    0.847047   -0.617019    0.000000
                              0.035877     0.000290    0.260941   -0.045149    0.151710   -0.323676    1.000000
    7.2 B3u   1  2px          0.017000     1.000000
    8.2 B3u   1  4f1+         0.119783     1.000000
    9.2 B3u   1  4f3+         0.119783     1.000000
   10.2 B3u   1  4f1+         0.405052     1.000000
   11.2 B3u   1  4f3+         0.405052     1.000000
   12.2 B3u   1  4f1+         1.369701     1.000000
   13.2 B3u   1  4f3+         1.369701     1.000000
   14.2 B3u   1  4f1+         4.631705     1.000000
   15.2 B3u   1  4f3+         4.631705     1.000000
   16.2 B3u   1  6h1+         0.740197     1.000000
   17.2 B3u   1  6h3+         0.740197     1.000000
   18.2 B3u   1  6h5+         0.740197     1.000000
   19.2 B3u   1  6h1+         2.093484     1.000000
   20.2 B3u   1  6h3+         2.093484     1.000000
   21.2 B3u   1  6h5+         2.093484     1.000000
    1.3 B2u   1  2py        113.479709     0.000103    0.000019   -0.000197    0.000014   -0.000214    0.000000
    2.3 B2u                  58.160819    -0.000894   -0.000024    0.001354    0.000421    0.001869    0.000000
    3.3 B2u                  30.043076     0.008844   -0.001224   -0.010102   -0.008573   -0.014399    0.000000
    4.3 B2u                  16.753323    -0.019685    0.002320    0.030603    0.038797    0.088663    0.000000
    5.3 B2u                  10.705604    -0.069190    0.020758    0.046200    0.099338    0.116117    0.000000
    6.3 B2u                   5.557903     0.011508   -0.011572   -0.017588   -0.144445   -0.476665    0.000000
                              3.080151     0.282313   -0.062919   -0.395920   -0.821182   -1.471896    0.000000
                              1.582963     0.438678   -0.136754   -0.419093   -0.250785    2.463635    0.000000
                              0.810922     0.309843   -0.067295    0.075017    1.790170    0.102508    0.000000
                              0.413396     0.083945   -0.031024    1.092986   -0.399547   -2.774601    0.000000
                              0.195480     0.007517    0.378981    0.008680   -1.294382    2.436254    0.000000
                              0.072688     0.001100    0.507824   -0.756369    0.847047   -0.617019    0.000000
                              0.035877     0.000290    0.260941   -0.045149    0.151710   -0.323676    1.000000
    7.3 B2u   1  2py          0.017000     1.000000
    8.3 B2u   1  4f1-         0.119783     1.000000
    9.3 B2u   1  4f3-         0.119783     1.000000
   10.3 B2u   1  4f1-         0.405052     1.000000
   11.3 B2u   1  4f3-         0.405052     1.000000
   12.3 B2u   1  4f1-         1.369701     1.000000
   13.3 B2u   1  4f3-         1.369701     1.000000
   14.3 B2u   1  4f1-         4.631705     1.000000
   15.3 B2u   1  4f3-         4.631705     1.000000
   16.3 B2u   1  6h1-         0.740197     1.000000
   17.3 B2u   1  6h3-         0.740197     1.000000
   18.3 B2u   1  6h5-         0.740197     1.000000
   19.3 B2u   1  6h1-         2.093484     1.000000
   20.3 B2u   1  6h3-         2.093484     1.000000
   21.3 B2u   1  6h5-         2.093484     1.000000
    1.4 B1g   1  3d2-       132.688182     0.000030   -0.000021    0.000060   -0.000037    0.000000
    2.4 B1g                  45.266024     0.005294   -0.005449    0.008385   -0.010809    0.000000
    3.4 B1g                  23.267336     0.029143   -0.029032    0.045800   -0.055582    0.000000
    4.4 B1g                  10.605694     0.076775   -0.079825    0.129215   -0.172053    0.000000
    5.4 B1g                   5.074684     0.168551   -0.174415    0.284327   -0.381889    0.000000
                              2.469857     0.256832   -0.253404    0.270760   -0.130399    0.000000
                              1.205883     0.289891   -0.174305   -0.101591    0.818993    0.000000
                              0.590569     0.257154    0.045081   -0.580677    0.180145    0.000000
                              0.292055     0.181726    0.345760   -0.181696   -0.604720    0.000000
                              0.149190     0.089986    0.263725    0.021003   -0.733584    0.000000
                              0.076511     0.034595    0.371715    0.723658    1.058741    1.000000
    6.4 B1g   1  3d2-         0.034000     1.000000
    7.4 B1g   1  5g2-         0.244611     1.000000
    8.4 B1g   1  5g4-         0.244611     1.000000
    9.4 B1g   1  5g2-         0.893773     1.000000
   10.4 B1g   1  5g4-         0.893773     1.000000
   11.4 B1g   1  5g2-         3.265719     1.000000
   12.4 B1g   1  5g4-         3.265719     1.000000
    1.5 B1u   1  2pz        113.479709     0.000103    0.000019   -0.000197    0.000014   -0.000214    0.000000
    2.5 B1u                  58.160819    -0.000894   -0.000024    0.001354    0.000421    0.001869    0.000000
    3.5 B1u                  30.043076     0.008844   -0.001224   -0.010102   -0.008573   -0.014399    0.000000
    4.5 B1u                  16.753323    -0.019685    0.002320    0.030603    0.038797    0.088663    0.000000
    5.5 B1u                  10.705604    -0.069190    0.020758    0.046200    0.099338    0.116117    0.000000
    6.5 B1u                   5.557903     0.011508   -0.011572   -0.017588   -0.144445   -0.476665    0.000000
                              3.080151     0.282313   -0.062919   -0.395920   -0.821182   -1.471896    0.000000
                              1.582963     0.438678   -0.136754   -0.419093   -0.250785    2.463635    0.000000
                              0.810922     0.309843   -0.067295    0.075017    1.790170    0.102508    0.000000
                              0.413396     0.083945   -0.031024    1.092986   -0.399547   -2.774601    0.000000
                              0.195480     0.007517    0.378981    0.008680   -1.294382    2.436254    0.000000
                              0.072688     0.001100    0.507824   -0.756369    0.847047   -0.617019    0.000000
                              0.035877     0.000290    0.260941   -0.045149    0.151710   -0.323676    1.000000
    7.5 B1u   1  2pz          0.017000     1.000000
    8.5 B1u   1  4f0          0.119783     1.000000
    9.5 B1u   1  4f2+         0.119783     1.000000
   10.5 B1u   1  4f0          0.405052     1.000000
   11.5 B1u   1  4f2+         0.405052     1.000000
   12.5 B1u   1  4f0          1.369701     1.000000
   13.5 B1u   1  4f2+         1.369701     1.000000
   14.5 B1u   1  4f0          4.631705     1.000000
   15.5 B1u   1  4f2+         4.631705     1.000000
   16.5 B1u   1  6h2+         0.740197     1.000000
   17.5 B1u   1  6h4+         0.740197     1.000000
   18.5 B1u   1  6h0          0.740197     1.000000
   19.5 B1u   1  6h2+         2.093484     1.000000
   20.5 B1u   1  6h4+         2.093484     1.000000
   21.5 B1u   1  6h0          2.093484     1.000000
    1.6 B2g   1  3d1+       132.688182     0.000030   -0.000021    0.000060   -0.000037    0.000000
    2.6 B2g                  45.266024     0.005294   -0.005449    0.008385   -0.010809    0.000000
    3.6 B2g                  23.267336     0.029143   -0.029032    0.045800   -0.055582    0.000000
    4.6 B2g                  10.605694     0.076775   -0.079825    0.129215   -0.172053    0.000000
    5.6 B2g                   5.074684     0.168551   -0.174415    0.284327   -0.381889    0.000000
                              2.469857     0.256832   -0.253404    0.270760   -0.130399    0.000000
                              1.205883     0.289891   -0.174305   -0.101591    0.818993    0.000000
                              0.590569     0.257154    0.045081   -0.580677    0.180145    0.000000
                              0.292055     0.181726    0.345760   -0.181696   -0.604720    0.000000
                              0.149190     0.089986    0.263725    0.021003   -0.733584    0.000000
                              0.076511     0.034595    0.371715    0.723658    1.058741    1.000000
    6.6 B2g   1  3d1+         0.034000     1.000000
    7.6 B2g   1  5g1+         0.244611     1.000000
    8.6 B2g   1  5g3+         0.244611     1.000000
    9.6 B2g   1  5g1+         0.893773     1.000000
   10.6 B2g   1  5g3+         0.893773     1.000000
   11.6 B2g   1  5g1+         3.265719     1.000000
   12.6 B2g   1  5g3+         3.265719     1.000000
    1.7 B3g   1  3d1-       132.688182     0.000030   -0.000021    0.000060   -0.000037    0.000000
    2.7 B3g                  45.266024     0.005294   -0.005449    0.008385   -0.010809    0.000000
    3.7 B3g                  23.267336     0.029143   -0.029032    0.045800   -0.055582    0.000000
    4.7 B3g                  10.605694     0.076775   -0.079825    0.129215   -0.172053    0.000000
    5.7 B3g                   5.074684     0.168551   -0.174415    0.284327   -0.381889    0.000000
                              2.469857     0.256832   -0.253404    0.270760   -0.130399    0.000000
                              1.205883     0.289891   -0.174305   -0.101591    0.818993    0.000000
                              0.590569     0.257154    0.045081   -0.580677    0.180145    0.000000
                              0.292055     0.181726    0.345760   -0.181696   -0.604720    0.000000
                              0.149190     0.089986    0.263725    0.021003   -0.733584    0.000000
                              0.076511     0.034595    0.371715    0.723658    1.058741    1.000000
    6.7 B3g   1  3d1-         0.034000     1.000000
    7.7 B3g   1  5g1-         0.244611     1.000000
    8.7 B3g   1  5g3-         0.244611     1.000000
    9.7 B3g   1  5g1-         0.893773     1.000000
   10.7 B3g   1  5g3-         0.893773     1.000000
   11.7 B3g   1  5g1-         3.265719     1.000000
   12.7 B3g   1  5g3-         3.265719     1.000000
    1.8 Au    1  4f2-         0.119783     1.000000
    2.8 Au    1  4f2-         0.405052     1.000000
    3.8 Au    1  4f2-         1.369701     1.000000
    4.8 Au    1  4f2-         4.631705     1.000000
    5.8 Au    1  6h4-         0.740197     1.000000
    6.8 Au    1  6h2-         0.740197     1.000000
    7.8 Au    1  6h4-         2.093484     1.000000
    8.8 Au    1  6h2-         2.093484     1.000000

 NUCLEAR CHARGE:                   15
 NUMBER OF PRIMITIVE AOS:         255
 NUMBER OF SYMMETRY AOS:          193
 NUMBER OF CONTRACTIONS:          135   (  28Ag  +  21B3u +  21B2u +  12B1g +  21B1u +  12B2g +  12B3g +   8Au  )
 NUMBER OF CORE ORBITALS:           4   (   1Ag  +   1B3u +   1B2u +   0B1g +   1B1u +   0B2g +   0B3g +   0Au  )
 NUMBER OF VALENCE ORBITALS:        6   (   3Ag  +   0B3u +   0B2u +   1B1g +   0B1u +   1B2g +   1B3g +   0Au  )


 NUCLEAR REPULSION ENERGY    0.00000000

 EXTRA SYMMETRY OF AOS IN SYMMETRY 1:   1 1 1 1 1 1 1 2 3 2   3 2 3 2 3 2 3 2 3 4   5 6 4 5 6 4 5 6
 EXTRA SYMMETRY OF AOS IN SYMMETRY 2:   1 1 1 1 1 1 1 2 3 2   3 2 3 2 3 4 5 6 4 5   6
 EXTRA SYMMETRY OF AOS IN SYMMETRY 3:   1 1 1 1 1 1 1 2 3 2   3 2 3 2 3 4 5 6 4 5   6
 EXTRA SYMMETRY OF AOS IN SYMMETRY 4:   1 1 1 1 1 1 2 3 2 3   2 3
 EXTRA SYMMETRY OF AOS IN SYMMETRY 5:   1 1 1 1 1 1 1 2 3 2   3 2 3 2 3 4 5 6 4 5   6
 EXTRA SYMMETRY OF AOS IN SYMMETRY 6:   1 1 1 1 1 1 2 3 2 3   2 3
 EXTRA SYMMETRY OF AOS IN SYMMETRY 7:   1 1 1 1 1 1 2 3 2 3   2 3
 EXTRA SYMMETRY OF AOS IN SYMMETRY 8:   1 1 1 1 2 3 2 3

 Eigenvalues of metric

         1 0.138E-02 0.138E-02 0.139E-02 0.883E-01 0.253E+00 0.253E+00 0.533E+00 0.533E+00
         2 0.145E-01 0.312E+00 0.320E+00 0.320E+00 0.569E+00 0.569E+00 0.569E+00 0.664E+00
         3 0.145E-01 0.312E+00 0.320E+00 0.320E+00 0.569E+00 0.569E+00 0.569E+00 0.664E+00
         4 0.138E-02 0.253E+00 0.533E+00 0.533E+00 0.976E+00 0.976E+00 0.997E+00 0.102E+01
         5 0.145E-01 0.312E+00 0.320E+00 0.320E+00 0.569E+00 0.569E+00 0.569E+00 0.664E+00
         6 0.138E-02 0.253E+00 0.533E+00 0.533E+00 0.976E+00 0.976E+00 0.997E+00 0.102E+01
         7 0.138E-02 0.253E+00 0.533E+00 0.533E+00 0.976E+00 0.976E+00 0.997E+00 0.102E+01
         8 0.320E+00 0.569E+00 0.569E+00 0.664E+00 0.122E+01 0.143E+01 0.143E+01 0.180E+01


 Contracted 2-electron integrals neglected if value below      1.0D-12
 AO integral compression algorithm  1   Integral accuracy      1.0D-12

     34.079 MB (compressed) written to integral file ( 47.3%)


 NUMBER OF SORTED TWO-ELECTRON INTEGRALS:    5465755.     BUFFER LENGTH:  32768
 NUMBER OF SEGMENTS:   1  SEGMENT LENGTH:    5465755      RECORD LENGTH: 524288

 Memory used in sort:       6.02 MW

 SORT1 READ     9044109. AND WROTE     3825599. INTEGRALS IN     11 RECORDS. CPU TIME:     0.29 SEC, REAL TIME:     0.36 SEC
 SORT2 READ     3825599. AND WROTE     5465755. INTEGRALS IN    130 RECORDS. CPU TIME:     0.24 SEC, REAL TIME:     0.36 SEC

 FILE SIZES:   FILE 1:    53.6 MBYTE,  FILE 4:    46.2 MBYTE,   TOTAL:     99.8 MBYTE

 OPERATOR DM      FOR CENTER  0  COORDINATES:    0.000000    0.000000    0.000000
 OPERATOR EKIN    FOR CENTER  0  COORDINATES:    0.000000    0.000000    0.000000
 OPERATOR POT     FOR CENTER  0  COORDINATES:    0.000000    0.000000    0.000000


 **********************************************************************************************************************************
 DATASETS  * FILE   NREC   LENGTH (MB)   RECORD NAMES
              1      20       40.04       500      610      700      900      950      970     1000      129      960     1100   
                                          VAR    BASINP    GEOM    SYMINP    ZMAT    AOBASIS   BASIS     P2S    ABASIS      S 
                                         1400     1410     1420     1200     1210     1080     1600     1650     1300     1700   
                                         EKIN       V       ECP      H0       H01     AOSYM     SMH    MOLCAS    ERIS     OPER   

 PROGRAMS   *        TOTAL       INT
 CPU TIMES  *         4.03      3.90
 REAL TIME  *         8.52 SEC
 DISK USED  *       100.10 MB      
 **********************************************************************************************************************************


 PROGRAM * RHF-SCF (OPEN SHELL)       Authors: W. Meyer, H.-J. Werner


 NUMBER OF ELECTRONS:      10+    5-    SPACE SYMMETRY=1    SPIN SYMMETRY: Sextet  
 CONVERGENCE THRESHOLDS:    1.00E-05 (Density)    1.00E-07 (Energy)
 MAX. NUMBER OF ITERATIONS:       60
 INTERPOLATION TYPE:            DIIS
 INTERPOLATION STEPS:              2 (START)      1 (STEP)
 LEVEL SHIFTS:                 -0.60 (CLOSED) -0.30 (OPEN) 


 Singly occupied orbitals:      3.1       4.1       1.4       1.6       1.7
 
 Extra symmetries of mos in symmetry 1:   1   1   3   2

   Atom=MN basis=ECP10MDF_GUESS    lmin=0  lmax=2

 Orbital guess generated from atomic densities. Full valence occupancy:    4   1   1   1   1   1   1   0


 Molecular orbital dump at record        2100.2

 ITERATION    DDIFF          GRAD             ENERGY        2-EL.EN.            DIPOLE MOMENTS         DIIS   ORB.
    1      0.000D+00      0.000D+00      -103.05717432    145.535792    0.00000    0.00000    0.00000    0    start
    2      0.000D+00      0.295D-01      -103.21556175    155.525409    0.00000    0.00000    0.00000    1    diag,B
    3      0.105D-01      0.198D-01      -103.23936423    153.843494    0.00000    0.00000    0.00000    2    diag,B
    4      0.221D-02      0.548D-02      -103.24383885    153.689596    0.00000    0.00000    0.00000    3    diag,B
    5      0.244D-02      0.930D-03      -103.24426489    153.687751    0.00000    0.00000    0.00000    4    diag,B
    6      0.793D-03      0.242D-03      -103.24432217    153.634773    0.00000    0.00000    0.00000    5    diag,B
    7      0.402D-03      0.101D-03      -103.24433468    153.600678    0.00000    0.00000    0.00000    6    fixocc
    8      0.313D-03      0.277D-04      -103.24433547    153.597722    0.00000    0.00000    0.00000    7    diag,B
    9      0.747D-04      0.144D-04      -103.24433574    153.594678    0.00000    0.00000    0.00000    8    diag,B
   10      0.547D-04      0.807D-05      -103.24433586    153.594029    0.00000    0.00000    0.00000    9    orth
   11      0.788D-04      0.143D-05      -103.24433586    153.593730    0.00000    0.00000    0.00000    9    diag,B
   12      0.773D-05      0.114D-06      -103.24433586    153.593738    0.00000    0.00000    0.00000    0    orth

 Final alpha occupancy:   4   1   1   1   1   1   1   0
 Final beta  occupancy:   2   1   1   0   1   0   0   0

 !RHF STATE 1.1 Energy               -103.244335864348
 Nuclear energy                         0.00000000
 One-electron energy                 -180.04120483
 Two-electron energy                   76.79686896
 Virial quotient                       -1.79688557
 !RHF STATE 1.1 Dipole moment           0.00000000     0.00000000     0.00000000
 Dipole moment /Debye                   0.00000000     0.00000000     0.00000000
 

 !RHF expec          <1.1|EKIN|1.1>    57.457379230960
 
 !RHF expec           <1.1|POT|1.1>   -16.675280491612

 ELECTRON ORBITALS
 =================


   Orb  Occ    Energy  Couls-En    Coefficients

                                   1 1s      1 1s      1 1s      1 1s      1 1s      1 1s      1 1s      1 3d0     1 3d2+    1 3d0  
                                   1 3d2+    1 3d0     1 3d2+    1 3d0     1 3d2+    1 3d0     1 3d2+    1 3d0     1 3d2+    1 5g0  
                                   1 5g4+    1 5g2+    1 5g0     1 5g4+    1 5g2+    1 5g0     1 5g4+    1 5g2+ 

   1.1   2    -3.9198  -19.3101  0.999988 -0.000052  0.000019 -0.000010 -0.000003  0.000084 -0.000030  0.000000  0.000000  0.000000
                                 0.000000  0.000000  0.000000  0.000000  0.000000 -0.000000 -0.000000  0.000000  0.000000 -0.000000
                                -0.000000  0.000000  0.000000 -0.000000 -0.000000  0.000000 -0.000000  0.000000

   2.1   2    -0.2508   -5.2937  0.000015  1.000054  0.000012 -0.000006 -0.000002 -0.000138  0.000097  0.000000 -0.000000  0.000000
                                -0.000000  0.000000 -0.000000  0.000000 -0.000000 -0.000000  0.000000  0.000000 -0.000000  0.000000
                                -0.000000  0.000000 -0.000000 -0.000000  0.000000 -0.000000 -0.000000 -0.000000

   3.1   +    -0.6292  -11.8121 -0.000000 -0.000000  0.000000 -0.000000 -0.000000  0.000000 -0.000000 -0.000799  0.981857  0.000102
                                -0.125599  0.000021 -0.026210  0.000001 -0.001676 -0.000031  0.037746 -0.000001  0.001548  0.000000
                                 0.000000  0.000000  0.000000 -0.000000 -0.000000  0.000000  0.000000  0.000000

   4.1   +    -0.6292  -11.8121  0.000000  0.000000 -0.000000  0.000000  0.000000 -0.000000  0.000000  0.981857  0.000799 -0.125599
                                -0.000102 -0.026210 -0.000021 -0.001676 -0.000001  0.037746  0.000031  0.001548  0.000001 -0.000000
                                -0.000000  0.000000  0.000000  0.000000 -0.000000 -0.000000 -0.000000  0.000000

                                   1 2px     1 2px     1 2px     1 2px     1 2px     1 2px     1 2px     1 4f1+    1 4f3+    1 4f1+ 
                                   1 4f3+    1 4f1+    1 4f3+    1 4f1+    1 4f3+    1 6h1+    1 6h3+    1 6h5+    1 6h1+    1 6h3+ 
                                   1 6h5+ 

   1.2   2    -2.4934  -16.3701  1.000603  0.019741  0.016160  0.002338 -0.001161 -0.006073  0.000225  0.000000 -0.000000 -0.000000
                                 0.000000  0.000000 -0.000000 -0.000000  0.000000  0.000000 -0.000000 -0.000000 -0.000000  0.000000
                                -0.000000

                                   1 2py     1 2py     1 2py     1 2py     1 2py     1 2py     1 2py     1 4f1-    1 4f3-    1 4f1- 
                                   1 4f3-    1 4f1-    1 4f3-    1 4f1-    1 4f3-    1 6h1-    1 6h3-    1 6h5-    1 6h1-    1 6h3- 
                                   1 6h5- 

   1.3   2    -2.4934  -16.3701  1.000603  0.019741  0.016160  0.002338 -0.001161 -0.006073  0.000225  0.000000  0.000000 -0.000000
                                -0.000000  0.000000  0.000000 -0.000000 -0.000000  0.000000  0.000000 -0.000000 -0.000000 -0.000000
                                -0.000000

                                   1 3d2-    1 3d2-    1 3d2-    1 3d2-    1 3d2-    1 3d2-    1 5g2-    1 5g4-    1 5g2-    1 5g4- 
                                   1 5g2-    1 5g4- 

   1.4   +    -0.6292  -11.8121  0.981857 -0.125599 -0.026210 -0.001676  0.037746  0.001548  0.000000 -0.000000 -0.000000  0.000000
                                 0.000000  0.000000

                                   1 2pz     1 2pz     1 2pz     1 2pz     1 2pz     1 2pz     1 2pz     1 4f0     1 4f2+    1 4f0  
                                   1 4f2+    1 4f0     1 4f2+    1 4f0     1 4f2+    1 6h2+    1 6h4+    1 6h0     1 6h2+    1 6h4+ 
                                   1 6h0  

   1.5   2    -2.4934  -16.3701  1.000603  0.019741  0.016160  0.002338 -0.001161 -0.006073  0.000225 -0.000000  0.000000  0.000000
                                 0.000000 -0.000000 -0.000000  0.000000  0.000000 -0.000000 -0.000000 -0.000000  0.000000  0.000000
                                 0.000000

                                   1 3d1+    1 3d1+    1 3d1+    1 3d1+    1 3d1+    1 3d1+    1 5g1+    1 5g3+    1 5g1+    1 5g3+ 
                                   1 5g1+    1 5g3+ 

   1.6   +    -0.6292  -11.8121  0.981857 -0.125599 -0.026210 -0.001676  0.037746  0.001548 -0.000000 -0.000000  0.000000  0.000000
                                -0.000000 -0.000000

                                   1 3d1-    1 3d1-    1 3d1-    1 3d1-    1 3d1-    1 3d1-    1 5g1-    1 5g3-    1 5g1-    1 5g3- 
                                   1 5g1-    1 5g3- 

   1.7   +    -0.6292  -11.8121  0.981857 -0.125599 -0.026210 -0.001676  0.037746  0.001548 -0.000000  0.000000  0.000000 -0.000000
                                -0.000000  0.000000

 HOMO      4.1    -0.629164 =     -17.1204eV
 LUMO      2.2     0.020314 =       0.5528eV
 LUMO-HOMO         0.649478 =      17.6732eV


 **********************************************************************************************************************************
 DATASETS  * FILE   NREC   LENGTH (MB)   RECORD NAMES
              1      20       40.04       500      610      700      900      950      970     1000      129      960     1100   
                                          VAR    BASINP    GEOM    SYMINP    ZMAT    AOBASIS   BASIS     P2S    ABASIS      S 
                                         1400     1410     1420     1200     1210     1080     1600     1650     1300     1700   
                                         EKIN       V       ECP      H0       H01     AOSYM     SMH    MOLCAS    ERIS     OPER   

              2       4        2.85       700     1000      520     2100   
                                         GEOM     BASIS   MCVARS     RHF  

 PROGRAMS   *        TOTAL        HF       INT
 CPU TIMES  *         4.31      0.28      3.90
 REAL TIME  *        12.52 SEC
 DISK USED  *       100.10 MB      
 **********************************************************************************************************************************
 SETTING SCF(I)         =      -103.24433586  AU                              
 SETTING _CC_NORM_MAX   =         2.00000000                                  


 PROGRAM * CCSD (Restricted open-shell coupled cluster)     Authors: C. Hampel, H.-J. Werner, 1991, M. Deegan, P.J. Knowles, 1992


 Convergence thresholds:  THRVAR = 1.00D-08  THRDEN = 1.00D-06

 CCSD(T)     terms to be evaluated (factor= 1.000)


 Number of closed-shell orbitals:   5 (   2   1   1   0   1   0   0   0 )
 Number of active  orbitals:        5 (   2   0   0   1   0   1   1   0 )
 Number of external orbitals:     125 (  24  20  20  11  20  11  11   8 )

 Memory could be reduced to 5.39 Mwords without degradation in triples

 Number of N-1 electron functions:              15
 Number of N-2 electron functions:             105
 Number of singly external CSFs:               312
 Number of doubly external CSFs:            166923
 Total number of CSFs:                      167235

 Molecular orbitals read from record     2100.2  Type=RHF/CANONICAL (state 1.1)

 Integral transformation finished. Total CPU:   0.12 sec, npass=  1  Memory used:   1.16 MW

 Starting RMP2 calculation

 Wavefunction is spin-projected

 ITER.      SQ.NORM     CORR.ENERGY   TOTAL ENERGY   ENERGY CHANGE        DEN1      VAR(S)    VAR(P)  DIIS     TIME
   1      1.09768835    -0.55905959  -103.80339546    -0.55905959    -0.00114977  0.24D-05  0.83D-03  1  1     0.15
   2      1.09987492    -0.56027605  -103.80461191    -0.00121646    -0.00002154  0.16D-06  0.22D-04  2  2     0.17
   3      1.10026480    -0.56041376  -103.80474962    -0.00013771    -0.00000021  0.39D-08  0.20D-06  3  3     0.19
   4      1.10029525    -0.56042209  -103.80475795    -0.00000833    -0.00000000  0.58D-10  0.15D-08  4  4     0.21
   5      1.10029532    -0.56042195  -103.80475782     0.00000014    -0.00000000  0.39D-11  0.15D-10  5  5     0.24

 Norm of t1 vector:      0.03663316      S-energy:    -0.00224208      T1 diagnostic:  0.00022239
 Norm of t2 vector:      0.31456849      P-energy:    -0.55817987
                                         Alpha-Beta:  -0.36739124
                                         Alpha-Alpha: -0.14699585
                                         Beta-Beta:   -0.04379278

 Spin contamination <S**2-Sz**2-Sz>     0.00000000
  Reference energy                   -103.244335864348
  RHF-RMP2 correlation energy          -0.560421951026
 !RHF-RMP2 energy                    -103.804757815374
 (NB above energy spin projected)

 Starting RCCSD calculation

 ITER.      SQ.NORM     CORR.ENERGY   TOTAL ENERGY   ENERGY CHANGE        DEN1      VAR(S)    VAR(P)  DIIS     TIME
   1      1.10226516    -0.55190713  -103.79624299    -0.55190713    -0.00955584  0.32D-02  0.25D-02  1  1     0.63
   2      1.11644871    -0.56071095  -103.80504682    -0.00880383    -0.00120942  0.51D-03  0.63D-03  2  2     1.01
   3      1.12668439    -0.56312547  -103.80746133    -0.00241451    -0.00017994  0.13D-03  0.76D-04  3  3     1.40
   4      1.13291868    -0.56442074  -103.80875660    -0.00129527    -0.00001009  0.42D-05  0.44D-05  4  4     1.83
   5      1.13377358    -0.56452044  -103.80885630    -0.00009971    -0.00000125  0.56D-06  0.64D-06  5  5     2.23
   6      1.13402423    -0.56454828  -103.80888414    -0.00002784    -0.00000014  0.53D-07  0.85D-07  6  6     2.61
   7      1.13407011    -0.56455305  -103.80888891    -0.00000477    -0.00000001  0.58D-08  0.68D-08  6  2     3.01
   8      1.13406435    -0.56455098  -103.80888684     0.00000207    -0.00000000  0.48D-09  0.60D-09  6  1     3.41
   9      1.13406621    -0.56455143  -103.80888730    -0.00000046    -0.00000000  0.73D-10  0.84D-10  6  3     3.78

 Norm of t1 vector:      0.12260067      S-energy:    -0.00326190      T1 diagnostic:  0.01934159
                                                                       D1 diagnostic:  0.06628899
 Norm of t2 vector:      0.34501491      P-energy:    -0.56128953
                                         Alpha-Beta:  -0.38208860
                                         Alpha-Alpha: -0.13662818
                                         Beta-Beta:   -0.04257275

 Singles amplitudes (print threshold =  0.500E-01):

         I         SYM. A    A   T(IA) [Alpha-Alpha]

         2         1         3     -0.05166819
         2         1         6      0.08493720

 Doubles amplitudes (print threshold =  0.500E-01):

         I         J         SYM. A    SYM. B    A         B      T(IJ, AB) [Alpha-Beta]

         2         2         2         2         2         2     -0.05023767
         2         2         3         3         2         2     -0.05023767
         2         2         5         5         2         2     -0.05023767

 Spin contamination <S**2-Sz**2-Sz>     0.00000000

 Memory could be reduced to 5.99 Mwords without degradation in triples
 

  Correlated core orbitals:             1.1       1.2       1.3       1.5
  Orbital energies:                    -4.1376   -2.7577   -2.7577   -2.7577
 
  RCCSD core-core energy               -0.166568576025
  RCCSD core-valence energy            -0.264925274620
  RCCSD valence correlation energy     -0.133057580503
 

 RESULTS
 =======

  Reference energy                   -103.244335864348
  RCCSD singles energy                 -0.003261901078
  RCCSD pair energy                    -0.561289530070
  RCCSD correlation energy             -0.564551431148
  Triples (T) contribution             -0.017504759315
  Total correlation energy             -0.582056190463
 
  RHF-RCCSD energy                   -103.808887295495
  RHF-RCCSD[T] energy                -103.826969509838
  RHF-RCCSD-T energy                 -103.826243481798
 !RHF-RCCSD(T) energy                -103.826392054811

 Program statistics:

 Available memory in ccsd:               511999000
 Min. memory needed in ccsd:                553632
 Max. memory used in ccsd:                  755270
 Max. memory used in cckext:                614301 ( 9 integral passes)
 Max. memory used in cckint:               1159349 ( 1 integral passes)



 **********************************************************************************************************************************
 DATASETS  * FILE   NREC   LENGTH (MB)   RECORD NAMES
              1      20       40.04       500      610      700      900      950      970     1000      129      960     1100   
                                          VAR    BASINP    GEOM    SYMINP    ZMAT    AOBASIS   BASIS     P2S    ABASIS      S 
                                         1400     1410     1420     1200     1210     1080     1600     1650     1300     1700   
                                         EKIN       V       ECP      H0       H01     AOSYM     SMH    MOLCAS    ERIS     OPER   

              2       4        2.85       700     1000      520     2100   
                                         GEOM     BASIS   MCVARS     RHF  

 PROGRAMS   *        TOTAL  RCCSD(T)        HF       INT
 CPU TIMES  *        14.17      9.86      0.28      3.90
 REAL TIME  *        29.35 SEC
 DISK USED  *       141.02 MB      
 **********************************************************************************************************************************
 SETTING POSTHF(I)      =      -103.82639205  AU                              
                                                                                                                                                                                                                                                                

         SCF            POSTHF       EKIN           POT
    -103.2443359   -103.8263921   57.45737923   -16.67528049
                                                  

 RCCSD(T)/USERDEF energy=   -103.826392054811

        RCCSD(T)        HF-SCF  
   -103.82639205   -103.24433586
 **********************************************************************************************************************************
 Variable memory released
