TACC:  Starting up job 2983013 
TACC:  Starting parallel tasks... 
  Input file(s): Ca.log.qmc.in-wfj.xml 

=====================================================
                    QMCPACK 3.6.0

       (c) Copyright 2003-  QMCPACK developers

                    Please cite:
 J. Kim et al. J. Phys. Cond. Mat. 30 195901 (2018)
      https://doi.org/10.1088/1361-648X/aab9c3

  Git branch: develop
  Last git commit: 278b2da505fe49852d465a6e4d7961918d794c87
  Last git commit date: Thu Feb 14 11:22:02 2019 -0500
  Last git commit subject: Merge pull request #1379 from ye-luo/raise-boost-version
=====================================================
  Global options 

  MPI Nodes             = 1024
  MPI Nodes per group   = 1024
  MPI Group ID          = 0
  OMP 1st level threads = 1
  OMP nested threading disabled or only 1 thread on the 2nd level

  Precision used in this calculation, see definitions in the manual:
  Base precision      = double
  Full precision      = double

  Structure-of-arrays (SoA) optimization enabled

  Input XML = Ca.log.qmc.in-wfj.xml

  Project = Ca.log
  date    = 2019-02-21 14:05:26 CST
  host    = c456-002.stampede2.tacc.utexas.edu

 Random Number
 -------------
  Offset for the random number seeds based on time: 134

  Range of prime numbers to use as seeds over processors and threads = 769-9377


 Particle Set 
 ------------
  Name: ion0
  All the species have the same mass 1
  Particle set size: 1

 Particle Set 
 ------------
  Name: e
  All the species have the same mass 1
  Particle set size: 10

 Wavefunction setup: 
 ------------------- 
  Name: psi0
  LCAO: SoaAtomicBasisSet<MultiQuintic,0>

  Distance table for similar particles (A-A):
    source/target: e
    Using structure-of-arrays (SoA) data layout
    Distance computations use open boundary conditions in 3D.


  Distance table for dissimilar particles (A-B):
    source: ion0  target: e
    Using structure-of-arrays (SoA) data layout
    Distance computations use open boundary conditions in 3D.

Reading BasisSet from HDF5 file:Ca.log.orbs.h5
<input node="atomicBasisSet" name="Gaussian" expandYlm="Gamess" angular="cartesian" elementType="Ca" normalized="no" type="Numerical" expM="0" />
  AO BasisSet for Ca
   Angular momentum expanded in cartesian functions x^lx y^ly z^lz according to Gamess
   Grid is created by the input paremters in h5
    Using log grid ri = 1e-06 rf = 100 npts = 1001
   R(n,l,m,s) 0 0 0 0
   R(n,l,m,s) 1 0 0 0
   R(n,l,m,s) 2 1 0 0
   R(n,l,m,s) 3 1 0 0
   R(n,l,m,s) 4 2 0 0
   R(n,l,m,s) 5 0 0 0
   R(n,l,m,s) 6 0 0 0
   R(n,l,m,s) 7 0 0 0
   R(n,l,m,s) 8 1 0 0
   R(n,l,m,s) 9 1 0 0
   R(n,l,m,s) 10 1 0 0
   R(n,l,m,s) 11 2 0 0
   R(n,l,m,s) 12 2 0 0
   R(n,l,m,s) 13 3 0 0
   R(n,l,m,s) 14 0 0 0
   R(n,l,m,s) 15 0 0 0
   R(n,l,m,s) 16 0 0 0
   R(n,l,m,s) 17 1 0 0
   R(n,l,m,s) 18 1 0 0
   R(n,l,m,s) 19 1 0 0
   R(n,l,m,s) 20 2 0 0
   R(n,l,m,s) 21 2 0 0
   R(n,l,m,s) 22 3 0 0
Expanding Ylm (angular function) according to Gamess using cartesian gaussians
Adding 1 cartesian gaussian orbitals for l= 0
Adding 1 cartesian gaussian orbitals for l= 0
Adding 3 cartesian gaussian orbitals for l= 1
Adding 3 cartesian gaussian orbitals for l= 1
Adding 6 cartesian gaussian orbitals for l= 2
Adding 1 cartesian gaussian orbitals for l= 0
Adding 1 cartesian gaussian orbitals for l= 0
Adding 1 cartesian gaussian orbitals for l= 0
Adding 3 cartesian gaussian orbitals for l= 1
Adding 3 cartesian gaussian orbitals for l= 1
Adding 3 cartesian gaussian orbitals for l= 1
Adding 6 cartesian gaussian orbitals for l= 2
Adding 6 cartesian gaussian orbitals for l= 2
Adding 10 cartesian gaussian orbitals for l= 3
Adding 1 cartesian gaussian orbitals for l= 0
Adding 1 cartesian gaussian orbitals for l= 0
Adding 1 cartesian gaussian orbitals for l= 0
Adding 3 cartesian gaussian orbitals for l= 1
Adding 3 cartesian gaussian orbitals for l= 1
Adding 3 cartesian gaussian orbitals for l= 1
Adding 6 cartesian gaussian orbitals for l= 2
Adding 6 cartesian gaussian orbitals for l= 2
Adding 10 cartesian gaussian orbitals for l= 3
  Setting cutoff radius 24.2103

   Maximum Angular Momentum  = 3
   Number of Radial functors = 23
   Basis size                = 82

  Created SPOSet builder named 'LCAOBSet' of type molecularorbital
Reuse SPOSetBuilder "LCAOBSet" type MolecularOrbital
  Building SPOSet '' with '' basis set.
Reuse SPOSetBuilder "LCAOBSet" type MolecularOrbital
  Building SPOSet '' with '' basis set.
  Creating a determinant updet group=0 sposet=updet
  Reusing a SPO set updet
Using DiracDeterminant
Using rank-1 Sherman-Morrison Fahy update

  Creating a determinant downdet group=1 sposet=downdet
  Reusing a SPO set downdet
Using DiracDeterminant
Using rank-1 Sherman-Morrison Fahy update

  FermionWF = SlaterDet
  RadialJastrowBuilder adds a functor with cusp = -0.25
 size = 10 parameters 
 cusp = -0.25
 rcut = 15
Parameter     Name      Value
uu_0 0 1 1  ON 0
uu_1 0 1 1  ON 1
uu_2 0 1 1  ON 2
uu_3 0 1 1  ON 3
uu_4 0 1 1  ON 4
uu_5 0 1 1  ON 5
uu_6 0 1 1  ON 6
uu_7 0 1 1  ON 7
uu_8 0 1 1  ON 8
uu_9 0 1 1  ON 9
  RadialJastrowBuilder adds a functor with cusp = -0.5
 size = 10 parameters 
 cusp = -0.5
 rcut = 15
Parameter     Name      Value
ud_0 0 1 1  ON 0
ud_1 0 1 1  ON 1
ud_2 0 1 1  ON 2
ud_3 0 1 1  ON 3
ud_4 0 1 1  ON 4
ud_5 0 1 1  ON 5
ud_6 0 1 1  ON 6
ud_7 0 1 1  ON 7
ud_8 0 1 1  ON 8
ud_9 0 1 1  ON 9
 size = 10 parameters 
 cusp = 0
 rcut = 15
Parameter     Name      Value
eCa_0 0 1 1  ON 0
eCa_1 0 1 1  ON 1
eCa_2 0 1 1  ON 2
eCa_3 0 1 1  ON 3
eCa_4 0 1 1  ON 4
eCa_5 0 1 1  ON 5
eCa_6 0 1 1  ON 6
eCa_7 0 1 1  ON 7
eCa_8 0 1 1  ON 8
eCa_9 0 1 1  ON 9
Expected 26 parameters, but found 0 in PolynomialFunctor3D.
Expected 26 parameters, but found 0 in PolynomialFunctor3D.
  QMCHamiltonian::addOperator Kinetic to H, physical Hamiltonian 
  QMCHamiltonian::addOperator ElecElec to H, physical Hamiltonian 
QMCHamiltonian::addOperatorType added type coulomb named ElecElec
  CoulombAA for ion0 is not created.  Number of particles == 1 and nonPeriodic

  ECPotential builder for pseudopotential 

  Adding pseudopotential for Ca
   Linear grid  ri=0 rf=10 npts = 10001
    ECPComponentBuilder::buildSemiLocalAndLocal 
    Assuming Hartree unit
   Number of angular momentum channels 3
   Maximum angular momentum channel 2
   Creating a Linear Grid Rmax=1.865
  Using global grid with delta = 0.001
   Making L=2 a local potential with a radial cutoff of 9.999
    Non-local pseudopotential parameters
    Maximum angular mementum = 1
    Number of non-local channels = 2
       l(0)=0
       l(1)=1
    Cutoff radius = 1.865
    Spherical grids and weights: 
                        1                 0                 0       0.08333333333
                       -1   1.224646799e-16                 0       0.08333333333
             0.4472135955       0.894427191                 0       0.08333333333
            -0.4472135955      0.7236067977      0.5257311121       0.08333333333
             0.4472135955      0.2763932023      0.8506508084       0.08333333333
            -0.4472135955     -0.2763932023      0.8506508084       0.08333333333
             0.4472135955     -0.7236067977      0.5257311121       0.08333333333
            -0.4472135955      -0.894427191   1.095357397e-16       0.08333333333
             0.4472135955     -0.7236067977     -0.5257311121       0.08333333333
            -0.4472135955     -0.2763932023     -0.8506508084       0.08333333333
             0.4472135955      0.2763932023     -0.8506508084       0.08333333333
            -0.4472135955      0.7236067977     -0.5257311121       0.08333333333
    Maximum cutoff radius 1.865
  QMCHamiltonian::addOperator LocalECP to H, physical Hamiltonian 

  Using NonLocalECP potential 
    Maximum grid on a sphere for NonLocalECPotential: 12
  QMCHamiltonian::addOperator NonLocalECP to H, physical Hamiltonian 
QMCHamiltonian::addOperatorType added type pseudo named PseudoPot

  QMCHamiltonian::add2WalkerProperty added
    4 to P::PropertyList 
    0 to P::Collectables 
    starting Index of the observables in P::PropertyList = 9
ParticleSetPool::randomize 
<init source="ion0" target="e">
</init>
  Initialization Execution time = 1.358 secs
=========================================================
 Summary of QMC systems 
=========================================================
ParticleSetPool has: 

  ParticleSet e : 0 5 10 

    10

    u -8.8458083937e-01 -4.9526251775e-01  2.7281357782e+00
    u -9.2463583145e-01  8.8255183652e-01 -7.7599374489e-02
    u  1.6090741211e+00 -1.4792929196e-01  1.0077099800e+00
    u  5.4543935061e-01 -1.0900589518e+00  2.1022971644e+00
    u -1.4932925714e+00 -9.2921675661e-01  1.6347459382e+00
    d -7.5527733125e-01  5.8629109317e-01 -1.9252568095e+00
    d  5.4186353409e-01  3.5411817097e-01 -2.6968742298e+00
    d  1.7385372231e+00  1.6423935219e+00  1.2488082385e+00
    d  1.8486143555e+00  9.8396467280e-01  2.4651952749e+00
    d -3.7175578501e-01  1.2297208203e+00  2.5539510527e+00

  ParticleSet ion0 : 0 1 

    1

    Ca  0.0000000000e+00  0.0000000000e+00  0.0000000000e+00

  Hamiltonian h0
  Kinetic         Kinetic energy
  ElecElec        CoulombAA source/target e

  LocalECP        LocalECPotential: ion0
  NonLocalECP     NonLocalECPotential: ion0

=========================================================
  Start VMC
  File Root Ca.log.s000 append = no 
=========================================================
  Adding 1 walkers to 0 existing sets
  Total number of walkers: 1.0240000000e+03
  Total weight: 1.0240000000e+03
  Resetting Properties of the walkers 1 x 13

<vmc function="put">
  qmc_counter=0  my_counter=0
  time step      = 1.5000000000e-01
  blocks         = 200
  steps          = 1
  substeps       = 5
  current        = 0
  target samples = 1.0240000000e+03
  walkers/mpi    = 1

  stepsbetweensamples = 200
<parameter name="blocks" condition="int">200</parameter>
<parameter name="blocks_between_recompute" condition="int">0</parameter>
<parameter name="check_properties" condition="int">100</parameter>
<parameter name="checkproperties" condition="int">100</parameter>
<parameter name="current" condition="int">0</parameter>
<parameter name="dmcwalkersperthread" condition="real">1.0000000000e+00</parameter>
<parameter name="maxcpusecs" condition="real">3.6000000000e+05</parameter>
<parameter name="record_configs" condition="int">0</parameter>
<parameter name="record_walkers" condition="int">200</parameter>
<parameter name="recordconfigs" condition="int">0</parameter>
<parameter name="recordwalkers" condition="int">200</parameter>
<parameter name="rewind" condition="int">0</parameter>
<parameter name="samples" condition="real">1.0240000000e+03</parameter>
<parameter name="samplesperthread" condition="real">1.0000000000e+00</parameter>
<parameter name="steps" condition="int">1</parameter>
<parameter name="stepsbetweensamples" condition="int">200</parameter>
<parameter name="store_configs" condition="int">0</parameter>
<parameter name="storeconfigs" condition="int">0</parameter>
<parameter name="sub_steps" condition="int">5</parameter>
<parameter name="substeps" condition="int">5</parameter>
<parameter name="tau" condition="au">1.5000000000e-01</parameter>
<parameter name="time_step" condition="au">1.5000000000e-01</parameter>
<parameter name="timestep" condition="au">1.5000000000e-01</parameter>
<parameter name="use_drift" condition="string">no</parameter>
<parameter name="usedrift" condition="string">no</parameter>
<parameter name="walkers" condition="int">1</parameter>
<parameter name="warmup_steps" condition="int">100</parameter>
<parameter name="warmupsteps" condition="int">100</parameter>
  DumpConfig==false Nothing (configurations, state) will be saved.
  Walker Samples are dumped every 200 steps.
</vmc>
  Initial partition of walkers 0 1 

  Using Particle by Particle moves
  Walker moves without drift
  Total Sample Size   =1024
  Walker distribution on root = 0 1 
  Using Locality Approximation
===== Memory Usage after the buffer registration =====
Available memory on node 0, free + buffers : 82710 MB
Memory footprint by rank 0 on node 0       : 74 MB
==================================================
  Anonymous Buffer size per walker : 4352 Bytes.
MEMORY increase 0 MB VMC::resetRun
====================================================
  SimpleFixedNodeBranch::finalize after a VMC block
    QMC counter        = 0
    time step          = 0.15
    reference energy   = -36.4476
    reference variance = 1.0466
====================================================
  QMC Execution time = 1.2279e+00 secs
Loop execution max-interations = 5

=========================================================
  Start QMCFixedSampleLinearOptimize
  File Root Ca.log.s001 append = no 
=========================================================
  Skip QMCDriver::putQMCInfo 
  Resetting Properties of the walkers 1 x 13

=========================================================
  Start VMC
  File Root Ca.log.s001 append = no 
=========================================================
  Using the current 1 walkers.
  Total number of walkers: 1.0240e+03
  Total weight: 1.0240e+03
  Resetting Properties of the walkers 1 x 13

<vmc function="put">
  qmc_counter=0  my_counter=0
  time step      = 1.5000e-01
  blocks         = 200
  steps          = 2
  substeps       = 5
  current        = 0
  target samples = 2.5600e+05
  walkers/mpi    = 1

  stepsbetweensamples = 1
<parameter name="blocks" condition="int">200</parameter>
<parameter name="blocks_between_recompute" condition="int">0</parameter>
<parameter name="check_properties" condition="int">100</parameter>
<parameter name="checkproperties" condition="int">100</parameter>
<parameter name="current" condition="int">0</parameter>
<parameter name="dmcwalkersperthread" condition="real">2.5000e+02</parameter>
<parameter name="maxcpusecs" condition="real">3.6000e+05</parameter>
<parameter name="record_configs" condition="int">0</parameter>
<parameter name="record_walkers" condition="int">1</parameter>
<parameter name="recordconfigs" condition="int">0</parameter>
<parameter name="recordwalkers" condition="int">1</parameter>
<parameter name="rewind" condition="int">0</parameter>
<parameter name="samples" condition="real">2.5600e+05</parameter>
<parameter name="samplesperthread" condition="real">2.5000e+02</parameter>
<parameter name="steps" condition="int">2</parameter>
<parameter name="stepsbetweensamples" condition="int">1</parameter>
<parameter name="store_configs" condition="int">0</parameter>
<parameter name="storeconfigs" condition="int">0</parameter>
<parameter name="sub_steps" condition="int">5</parameter>
<parameter name="substeps" condition="int">5</parameter>
<parameter name="tau" condition="au">1.5000e-01</parameter>
<parameter name="time_step" condition="au">1.5000e-01</parameter>
<parameter name="timestep" condition="au">1.5000e-01</parameter>
<parameter name="use_drift" condition="string">no</parameter>
<parameter name="usedrift" condition="string">no</parameter>
<parameter name="walkers" condition="int">1</parameter>
<parameter name="warmup_steps" condition="int">0</parameter>
<parameter name="warmupsteps" condition="int">0</parameter>
  DumpConfig==false Nothing (configurations, state) will be saved.
  Walker Samples are dumped every 1 steps.
</vmc>
    Restarting, cummulative properties:
      energy     = -3.6448e+01
      variance   = 0.0000e+00
      r2accepted = 1.0000e-10
      r2proposed = 1.0000e-10
 Using QMCCostFunction::QMCCostFunction
  EstimatorManagerBase::add replace LocalEnergy estimator.
<optimization-report>
<vmc stage="main" blocks="200">
  Cannot make clones again. Use existing 1 clones
  Initial partition of walkers 0 1 

  Using Particle by Particle moves
  Walker moves without drift
  Total Sample Size   =256000
  Walker distribution on root = 0 1 
  Using Locality Approximation
===== Memory Usage after the buffer registration =====
Available memory on node 0, free + buffers : 82688 MB
Memory footprint by rank 0 on node 0       : 75 MB
==================================================
  Anonymous Buffer size per walker : 4352 Bytes.
MEMORY increase 0 MB VMC::resetRun
====================================================
  SimpleFixedNodeBranch::finalize after a VMC block
    QMC counter        = 1
    time step          = 0.15
    reference energy   = -36.5277
    reference variance = 0.964221
====================================================
  Execution time = 1.9687e+00
</vmc>
<opt stage="setup">
  <log>
   Reading configurations from h5FileRoot Ca.log.s001
  QMCCostFunction is created with 1 threads.
  Using Nonlocal PP in Opt: NonLocalECP
   Number of samples loaded to each thread : 250 
  VMC Eavg = -3.6461e+01
  VMC Evar = 1.0971e+00
  Total weights = 2.5600e+05
  Execution time = 4.2548e-01
  </log>
</opt>
<opt stage="main" walkers="256000">
  <log>

*****************************************
Building overlap and Hamiltonian matrices
*****************************************

Among totally 30 optimized parameters, largest LM parameter change : 7.8359e-01 at parameter 20

******************************************************************************
Init Cost =   1.0971e+00    New Cost =   4.9968e-01  Delta Cost =  -5.9741e-01
******************************************************************************

The new set of parameters is valid. Updating the trial wave function!

*****************************************************************************
Applying the update for shift_i =   1.0000e-02     and shift_s =   2.5000e-01
*****************************************************************************
  Execution time = 3.3785e+00
  </log>
  <optVariables href="Ca.log.s001.opt.xml">
uu_0 1.7792e-01 1 1  ON 0
uu_1 6.9712e-03 1 1  ON 1
uu_2 -4.2542e-02 1 1  ON 2
uu_3 -5.4613e-02 1 1  ON 3
uu_4 -4.8752e-02 1 1  ON 4
uu_5 -3.4395e-02 1 1  ON 5
uu_6 -9.6101e-03 1 1  ON 6
uu_7 8.0404e-03 1 1  ON 7
uu_8 1.2944e-02 1 1  ON 8
uu_9 3.2912e-04 1 1  ON 9
ud_0 2.8722e-01 1 1  ON 10
ud_1 4.2142e-02 1 1  ON 11
ud_2 -7.5431e-03 1 1  ON 12
ud_3 -3.7952e-02 1 1  ON 13
ud_4 -4.1709e-02 1 1  ON 14
ud_5 -4.8003e-02 1 1  ON 15
ud_6 -4.3374e-02 1 1  ON 16
ud_7 -4.1654e-02 1 1  ON 17
ud_8 -3.4590e-02 1 1  ON 18
ud_9 -2.6845e-02 1 1  ON 19
eCa_0 -7.8359e-01 1 1  ON 20
eCa_1 -2.6033e-01 1 1  ON 21
eCa_2 1.1810e-01 1 1  ON 22
eCa_3 2.5484e-01 1 1  ON 23
eCa_4 2.8375e-01 1 1  ON 24
eCa_5 2.2410e-01 1 1  ON 25
eCa_6 1.2134e-01 1 1  ON 26
eCa_7 4.4897e-02 1 1  ON 27
eCa_8 4.1358e-03 1 1  ON 28
eCa_9 -3.0841e-03 1 1  ON 29
  </optVariables>
   Restore the number of walkers to 1, removing 0 walkers.
</opt>
</optimization-report>
  QMC Execution time = 3.3956e+00 secs
  Reusing QMCFixedSampleLinearOptimize
 Using QMCCostFunction::QMCCostFunction

=========================================================
  Start QMCFixedSampleLinearOptimize
  File Root Ca.log.s002 append = no 
=========================================================
  Skip QMCDriver::putQMCInfo 
  Resetting Properties of the walkers 1 x 13

=========================================================
  Start VMC
  File Root Ca.log.s002 append = no 
=========================================================
Using existing walkers 
  Resetting Properties of the walkers 1 x 13

<vmc function="put">
  qmc_counter=1  my_counter=1
  time step      = 1.5000e-01
  blocks         = 200
  steps          = 2
  substeps       = 5
  current        = 0
  target samples = 2.5600e+05
  walkers/mpi    = 1

  stepsbetweensamples = 1
<parameter name="blocks" condition="int">200</parameter>
<parameter name="blocks_between_recompute" condition="int">0</parameter>
<parameter name="check_properties" condition="int">100</parameter>
<parameter name="checkproperties" condition="int">100</parameter>
<parameter name="current" condition="int">0</parameter>
<parameter name="dmcwalkersperthread" condition="real">2.5000e+02</parameter>
<parameter name="maxcpusecs" condition="real">3.6000e+05</parameter>
<parameter name="record_configs" condition="int">0</parameter>
<parameter name="record_walkers" condition="int">1</parameter>
<parameter name="recordconfigs" condition="int">0</parameter>
<parameter name="recordwalkers" condition="int">1</parameter>
<parameter name="rewind" condition="int">0</parameter>
<parameter name="samples" condition="real">2.5600e+05</parameter>
<parameter name="samplesperthread" condition="real">2.5000e+02</parameter>
<parameter name="steps" condition="int">2</parameter>
<parameter name="stepsbetweensamples" condition="int">1</parameter>
<parameter name="store_configs" condition="int">0</parameter>
<parameter name="storeconfigs" condition="int">0</parameter>
<parameter name="sub_steps" condition="int">5</parameter>
<parameter name="substeps" condition="int">5</parameter>
<parameter name="tau" condition="au">1.5000e-01</parameter>
<parameter name="time_step" condition="au">1.5000e-01</parameter>
<parameter name="timestep" condition="au">1.5000e-01</parameter>
<parameter name="use_drift" condition="string">no</parameter>
<parameter name="usedrift" condition="string">no</parameter>
<parameter name="walkers" condition="int">1</parameter>
<parameter name="warmup_steps" condition="int">0</parameter>
<parameter name="warmupsteps" condition="int">0</parameter>
  DumpConfig==false Nothing (configurations, state) will be saved.
  Walker Samples are dumped every 1 steps.
</vmc>
  EstimatorManagerBase::add replace LocalEnergy estimator.
  EstimatorManagerBase::add replace LocalEnergy estimator.
<optimization-report>
<vmc stage="main" blocks="200">
  Cannot make clones again. Use existing 1 clones
  Initial partition of walkers 0 1 
  Using Particle by Particle moves
  Walker moves without drift
  Total Sample Size   =256000
  Walker distribution on root = 0 1 
  Using Locality Approximation
===== Memory Usage after the buffer registration =====
Available memory on node 0, free + buffers : 82660 MB
Memory footprint by rank 0 on node 0       : 76 MB
==================================================
====================================================
  SimpleFixedNodeBranch::finalize after a VMC block
    QMC counter        = 2
    time step          = 0.15
    reference energy   = -36.6282
    reference variance = 0.416324
====================================================
  Execution time = 2.8486e+00
</vmc>
<opt stage="setup">
  <log>
   Reading configurations from h5FileRoot Ca.log.s002
  QMCCostFunction is created with 1 threads.
  Using Nonlocal PP in Opt: NonLocalECP
   Number of samples loaded to each thread : 250 
  VMC Eavg = -3.6620e+01
  VMC Evar = 4.3979e-01
  Total weights = 2.5600e+05
  Execution time = 8.5502e-01
  </log>
</opt>
<opt stage="main" walkers="256000">
  <log>

*****************************************
Building overlap and Hamiltonian matrices
*****************************************

Among totally 30 optimized parameters, largest LM parameter change : 4.9143e-01 at parameter 20

******************************************************************************
Init Cost =   4.3979e-01    New Cost =   4.7995e-01  Delta Cost =   4.0152e-02
******************************************************************************

The new set of parameters is valid. Updating the trial wave function!

*****************************************************************************
Applying the update for shift_i =   1.0000e-02     and shift_s =   6.2500e-02
*****************************************************************************
  Execution time = 4.5811e+00
  </log>
  <optVariables href="Ca.log.s002.opt.xml">
uu_0 2.5213e-01 1 1  ON 0
uu_1 1.6747e-02 1 1  ON 1
uu_2 -6.8012e-02 1 1  ON 2
uu_3 -9.3646e-02 1 1  ON 3
uu_4 -8.6583e-02 1 1  ON 4
uu_5 -6.1406e-02 1 1  ON 5
uu_6 -1.3022e-02 1 1  ON 6
uu_7 2.3008e-02 1 1  ON 7
uu_8 2.7009e-02 1 1  ON 8
uu_9 1.2081e-02 1 1  ON 9
ud_0 4.2405e-01 1 1  ON 10
ud_1 9.9395e-02 1 1  ON 11
ud_2 5.7576e-03 1 1  ON 12
ud_3 -5.0343e-02 1 1  ON 13
ud_4 -6.6594e-02 1 1  ON 14
ud_5 -8.6257e-02 1 1  ON 15
ud_6 -8.6345e-02 1 1  ON 16
ud_7 -8.4354e-02 1 1  ON 17
ud_8 -7.5946e-02 1 1  ON 18
ud_9 -4.3325e-02 1 1  ON 19
eCa_0 -1.2750e+00 1 1  ON 20
eCa_1 -5.2102e-01 1 1  ON 21
eCa_2 1.0899e-01 1 1  ON 22
eCa_3 4.0447e-01 1 1  ON 23
eCa_4 4.9960e-01 1 1  ON 24
eCa_5 4.3664e-01 1 1  ON 25
eCa_6 2.5490e-01 1 1  ON 26
eCa_7 8.7373e-02 1 1  ON 27
eCa_8 8.6984e-03 1 1  ON 28
eCa_9 -1.3790e-03 1 1  ON 29
  </optVariables>
   Restore the number of walkers to 1, removing 0 walkers.
</opt>
</optimization-report>
  QMC Execution time = 4.6481e+00 secs
  Reusing QMCFixedSampleLinearOptimize
 Using QMCCostFunction::QMCCostFunction

=========================================================
  Start QMCFixedSampleLinearOptimize
  File Root Ca.log.s003 append = no 
=========================================================
  Skip QMCDriver::putQMCInfo 
  Resetting Properties of the walkers 1 x 13

=========================================================
  Start VMC
  File Root Ca.log.s003 append = no 
=========================================================
Using existing walkers 
  Resetting Properties of the walkers 1 x 13

<vmc function="put">
  qmc_counter=2  my_counter=2
  time step      = 1.5000e-01
  blocks         = 200
  steps          = 2
  substeps       = 5
  current        = 0
  target samples = 2.5600e+05
  walkers/mpi    = 1

  stepsbetweensamples = 1
<parameter name="blocks" condition="int">200</parameter>
<parameter name="blocks_between_recompute" condition="int">0</parameter>
<parameter name="check_properties" condition="int">100</parameter>
<parameter name="checkproperties" condition="int">100</parameter>
<parameter name="current" condition="int">0</parameter>
<parameter name="dmcwalkersperthread" condition="real">2.5000e+02</parameter>
<parameter name="maxcpusecs" condition="real">3.6000e+05</parameter>
<parameter name="record_configs" condition="int">0</parameter>
<parameter name="record_walkers" condition="int">1</parameter>
<parameter name="recordconfigs" condition="int">0</parameter>
<parameter name="recordwalkers" condition="int">1</parameter>
<parameter name="rewind" condition="int">0</parameter>
<parameter name="samples" condition="real">2.5600e+05</parameter>
<parameter name="samplesperthread" condition="real">2.5000e+02</parameter>
<parameter name="steps" condition="int">2</parameter>
<parameter name="stepsbetweensamples" condition="int">1</parameter>
<parameter name="store_configs" condition="int">0</parameter>
<parameter name="storeconfigs" condition="int">0</parameter>
<parameter name="sub_steps" condition="int">5</parameter>
<parameter name="substeps" condition="int">5</parameter>
<parameter name="tau" condition="au">1.5000e-01</parameter>
<parameter name="time_step" condition="au">1.5000e-01</parameter>
<parameter name="timestep" condition="au">1.5000e-01</parameter>
<parameter name="use_drift" condition="string">no</parameter>
<parameter name="usedrift" condition="string">no</parameter>
<parameter name="walkers" condition="int">1</parameter>
<parameter name="warmup_steps" condition="int">0</parameter>
<parameter name="warmupsteps" condition="int">0</parameter>
  DumpConfig==false Nothing (configurations, state) will be saved.
  Walker Samples are dumped every 1 steps.
</vmc>
  EstimatorManagerBase::add replace LocalEnergy estimator.
  EstimatorManagerBase::add replace LocalEnergy estimator.
<optimization-report>
<vmc stage="main" blocks="200">
  Cannot make clones again. Use existing 1 clones
  Initial partition of walkers 0 1 
  Using Particle by Particle moves
  Walker moves without drift
  Total Sample Size   =256000
  Walker distribution on root = 0 1 
  Using Locality Approximation
===== Memory Usage after the buffer registration =====
Available memory on node 0, free + buffers : 82666 MB
Memory footprint by rank 0 on node 0       : 78 MB
==================================================
====================================================
  SimpleFixedNodeBranch::finalize after a VMC block
    QMC counter        = 3
    time step          = 0.15
    reference energy   = -36.6633
    reference variance = 0.42315
====================================================
  Execution time = 2.9900e+00
</vmc>
<opt stage="setup">
  <log>
   Reading configurations from h5FileRoot Ca.log.s003
  QMCCostFunction is created with 1 threads.
  Using Nonlocal PP in Opt: NonLocalECP
   Number of samples loaded to each thread : 250 
  VMC Eavg = -3.6648e+01
  VMC Evar = 4.5499e-01
  Total weights = 2.5600e+05
  Execution time = 8.8255e-01
  </log>
</opt>
<opt stage="main" walkers="256000">
  <log>

*****************************************
Building overlap and Hamiltonian matrices
*****************************************

Among totally 30 optimized parameters, largest LM parameter change : 2.6214e-01 at parameter 20

******************************************************************************
Init Cost =   4.5499e-01    New Cost =   4.8910e-01  Delta Cost =   3.4115e-02
******************************************************************************

The new set of parameters is valid. Updating the trial wave function!

*****************************************************************************
Applying the update for shift_i =   1.0000e-02     and shift_s =   1.5625e-02
*****************************************************************************
  Execution time = 4.6056e+00
  </log>
  <optVariables href="Ca.log.s003.opt.xml">
uu_0 2.8701e-01 1 1  ON 0
uu_1 3.3258e-02 1 1  ON 1
uu_2 -6.6194e-02 1 1  ON 2
uu_3 -1.0711e-01 1 1  ON 3
uu_4 -1.0820e-01 1 1  ON 4
uu_5 -8.9432e-02 1 1  ON 5
uu_6 -3.2019e-02 1 1  ON 6
uu_7 2.0891e-02 1 1  ON 7
uu_8 4.4077e-02 1 1  ON 8
uu_9 1.9454e-02 1 1  ON 9
ud_0 4.7340e-01 1 1  ON 10
ud_1 1.2888e-01 1 1  ON 11
ud_2 1.9042e-02 1 1  ON 12
ud_3 -5.3758e-02 1 1  ON 13
ud_4 -8.0297e-02 1 1  ON 14
ud_5 -1.0409e-01 1 1  ON 15
ud_6 -1.0521e-01 1 1  ON 16
ud_7 -9.8463e-02 1 1  ON 17
ud_8 -8.2348e-02 1 1  ON 18
ud_9 -5.3155e-02 1 1  ON 19
eCa_0 -1.5372e+00 1 1  ON 20
eCa_1 -7.0932e-01 1 1  ON 21
eCa_2 3.0668e-02 1 1  ON 22
eCa_3 4.4952e-01 1 1  ON 23
eCa_4 6.2727e-01 1 1  ON 24
eCa_5 6.0207e-01 1 1  ON 25
eCa_6 3.8458e-01 1 1  ON 26
eCa_7 1.3523e-01 1 1  ON 27
eCa_8 2.1787e-02 1 1  ON 28
eCa_9 -2.3749e-03 1 1  ON 29
  </optVariables>
   Restore the number of walkers to 1, removing 0 walkers.
</opt>
</optimization-report>
  QMC Execution time = 4.6610e+00 secs
  Reusing QMCFixedSampleLinearOptimize
 Using QMCCostFunction::QMCCostFunction

=========================================================
  Start QMCFixedSampleLinearOptimize
  File Root Ca.log.s004 append = no 
=========================================================
  Skip QMCDriver::putQMCInfo 
  Resetting Properties of the walkers 1 x 13

=========================================================
  Start VMC
  File Root Ca.log.s004 append = no 
=========================================================
Using existing walkers 
  Resetting Properties of the walkers 1 x 13

<vmc function="put">
  qmc_counter=3  my_counter=3
  time step      = 1.5000e-01
  blocks         = 200
  steps          = 2
  substeps       = 5
  current        = 0
  target samples = 2.5600e+05
  walkers/mpi    = 1

  stepsbetweensamples = 1
<parameter name="blocks" condition="int">200</parameter>
<parameter name="blocks_between_recompute" condition="int">0</parameter>
<parameter name="check_properties" condition="int">100</parameter>
<parameter name="checkproperties" condition="int">100</parameter>
<parameter name="current" condition="int">0</parameter>
<parameter name="dmcwalkersperthread" condition="real">2.5000e+02</parameter>
<parameter name="maxcpusecs" condition="real">3.6000e+05</parameter>
<parameter name="record_configs" condition="int">0</parameter>
<parameter name="record_walkers" condition="int">1</parameter>
<parameter name="recordconfigs" condition="int">0</parameter>
<parameter name="recordwalkers" condition="int">1</parameter>
<parameter name="rewind" condition="int">0</parameter>
<parameter name="samples" condition="real">2.5600e+05</parameter>
<parameter name="samplesperthread" condition="real">2.5000e+02</parameter>
<parameter name="steps" condition="int">2</parameter>
<parameter name="stepsbetweensamples" condition="int">1</parameter>
<parameter name="store_configs" condition="int">0</parameter>
<parameter name="storeconfigs" condition="int">0</parameter>
<parameter name="sub_steps" condition="int">5</parameter>
<parameter name="substeps" condition="int">5</parameter>
<parameter name="tau" condition="au">1.5000e-01</parameter>
<parameter name="time_step" condition="au">1.5000e-01</parameter>
<parameter name="timestep" condition="au">1.5000e-01</parameter>
<parameter name="use_drift" condition="string">no</parameter>
<parameter name="usedrift" condition="string">no</parameter>
<parameter name="walkers" condition="int">1</parameter>
<parameter name="warmup_steps" condition="int">0</parameter>
<parameter name="warmupsteps" condition="int">0</parameter>
  DumpConfig==false Nothing (configurations, state) will be saved.
  Walker Samples are dumped every 1 steps.
</vmc>
  EstimatorManagerBase::add replace LocalEnergy estimator.
  EstimatorManagerBase::add replace LocalEnergy estimator.
<optimization-report>
<vmc stage="main" blocks="200">
  Cannot make clones again. Use existing 1 clones
  Initial partition of walkers 0 1 
  Using Particle by Particle moves
  Walker moves without drift
  Total Sample Size   =256000
  Walker distribution on root = 0 1 
  Using Locality Approximation
===== Memory Usage after the buffer registration =====
Available memory on node 0, free + buffers : 82664 MB
Memory footprint by rank 0 on node 0       : 80 MB
==================================================
====================================================
  SimpleFixedNodeBranch::finalize after a VMC block
    QMC counter        = 4
    time step          = 0.15
    reference energy   = -36.673
    reference variance = 0.457885
====================================================
  Execution time = 2.7078e+00
</vmc>
<opt stage="setup">
  <log>
   Reading configurations from h5FileRoot Ca.log.s004
  QMCCostFunction is created with 1 threads.
  Using Nonlocal PP in Opt: NonLocalECP
   Number of samples loaded to each thread : 250 
  VMC Eavg = -3.6652e+01
  VMC Evar = 4.8261e-01
  Total weights = 2.5600e+05
  Execution time = 7.4404e-01
  </log>
</opt>
<opt stage="main" walkers="256000">
  <log>

*****************************************
Building overlap and Hamiltonian matrices
*****************************************

Among totally 30 optimized parameters, largest LM parameter change : 1.6209e-01 at parameter 20

******************************************************************************
Init Cost =   4.8261e-01    New Cost =   4.9423e-01  Delta Cost =   1.1618e-02
******************************************************************************

The new set of parameters is valid. Updating the trial wave function!

*****************************************************************************
Applying the update for shift_i =   1.0000e-02     and shift_s =   3.9062e-03
*****************************************************************************
  Execution time = 4.0151e+00
  </log>
  <optVariables href="Ca.log.s004.opt.xml">
uu_0 3.0133e-01 1 1  ON 0
uu_1 4.2330e-02 1 1  ON 1
uu_2 -6.2887e-02 1 1  ON 2
uu_3 -1.1251e-01 1 1  ON 3
uu_4 -1.2033e-01 1 1  ON 4
uu_5 -1.0409e-01 1 1  ON 5
uu_6 -4.9590e-02 1 1  ON 6
uu_7 1.7978e-02 1 1  ON 7
uu_8 5.1009e-02 1 1  ON 8
uu_9 2.9685e-02 1 1  ON 9
ud_0 4.9760e-01 1 1  ON 10
ud_1 1.4942e-01 1 1  ON 11
ud_2 3.2013e-02 1 1  ON 12
ud_3 -4.8764e-02 1 1  ON 13
ud_4 -8.3463e-02 1 1  ON 14
ud_5 -1.1117e-01 1 1  ON 15
ud_6 -1.1598e-01 1 1  ON 16
ud_7 -1.0694e-01 1 1  ON 17
ud_8 -1.0431e-01 1 1  ON 18
ud_9 -6.8199e-02 1 1  ON 19
eCa_0 -1.6993e+00 1 1  ON 20
eCa_1 -8.4716e-01 1 1  ON 21
eCa_2 -5.6274e-02 1 1  ON 22
eCa_3 4.3971e-01 1 1  ON 23
eCa_4 6.9691e-01 1 1  ON 24
eCa_5 7.3126e-01 1 1  ON 25
eCa_6 5.0737e-01 1 1  ON 26
eCa_7 1.9677e-01 1 1  ON 27
eCa_8 3.3777e-02 1 1  ON 28
eCa_9 -2.2348e-03 1 1  ON 29
  </optVariables>
   Restore the number of walkers to 1, removing 0 walkers.
</opt>
</optimization-report>
  QMC Execution time = 4.0786e+00 secs
  Reusing QMCFixedSampleLinearOptimize
 Using QMCCostFunction::QMCCostFunction

=========================================================
  Start QMCFixedSampleLinearOptimize
  File Root Ca.log.s005 append = no 
=========================================================
  Skip QMCDriver::putQMCInfo 
  Resetting Properties of the walkers 1 x 13

=========================================================
  Start VMC
  File Root Ca.log.s005 append = no 
=========================================================
Using existing walkers 
  Resetting Properties of the walkers 1 x 13

<vmc function="put">
  qmc_counter=4  my_counter=4
  time step      = 1.5000e-01
  blocks         = 200
  steps          = 2
  substeps       = 5
  current        = 0
  target samples = 2.5600e+05
  walkers/mpi    = 1

  stepsbetweensamples = 1
<parameter name="blocks" condition="int">200</parameter>
<parameter name="blocks_between_recompute" condition="int">0</parameter>
<parameter name="check_properties" condition="int">100</parameter>
<parameter name="checkproperties" condition="int">100</parameter>
<parameter name="current" condition="int">0</parameter>
<parameter name="dmcwalkersperthread" condition="real">2.5000e+02</parameter>
<parameter name="maxcpusecs" condition="real">3.6000e+05</parameter>
<parameter name="record_configs" condition="int">0</parameter>
<parameter name="record_walkers" condition="int">1</parameter>
<parameter name="recordconfigs" condition="int">0</parameter>
<parameter name="recordwalkers" condition="int">1</parameter>
<parameter name="rewind" condition="int">0</parameter>
<parameter name="samples" condition="real">2.5600e+05</parameter>
<parameter name="samplesperthread" condition="real">2.5000e+02</parameter>
<parameter name="steps" condition="int">2</parameter>
<parameter name="stepsbetweensamples" condition="int">1</parameter>
<parameter name="store_configs" condition="int">0</parameter>
<parameter name="storeconfigs" condition="int">0</parameter>
<parameter name="sub_steps" condition="int">5</parameter>
<parameter name="substeps" condition="int">5</parameter>
<parameter name="tau" condition="au">1.5000e-01</parameter>
<parameter name="time_step" condition="au">1.5000e-01</parameter>
<parameter name="timestep" condition="au">1.5000e-01</parameter>
<parameter name="use_drift" condition="string">no</parameter>
<parameter name="usedrift" condition="string">no</parameter>
<parameter name="walkers" condition="int">1</parameter>
<parameter name="warmup_steps" condition="int">0</parameter>
<parameter name="warmupsteps" condition="int">0</parameter>
  DumpConfig==false Nothing (configurations, state) will be saved.
  Walker Samples are dumped every 1 steps.
</vmc>
  EstimatorManagerBase::add replace LocalEnergy estimator.
  EstimatorManagerBase::add replace LocalEnergy estimator.
<optimization-report>
<vmc stage="main" blocks="200">
  Cannot make clones again. Use existing 1 clones
  Initial partition of walkers 0 1 
  Using Particle by Particle moves
  Walker moves without drift
  Total Sample Size   =256000
  Walker distribution on root = 0 1 
  Using Locality Approximation
===== Memory Usage after the buffer registration =====
Available memory on node 0, free + buffers : 82662 MB
Memory footprint by rank 0 on node 0       : 81 MB
==================================================
====================================================
  SimpleFixedNodeBranch::finalize after a VMC block
    QMC counter        = 5
    time step          = 0.15
    reference energy   = -36.6943
    reference variance = 0.426721
====================================================
  Execution time = 2.7514e+00
</vmc>
<opt stage="setup">
  <log>
   Reading configurations from h5FileRoot Ca.log.s005
  QMCCostFunction is created with 1 threads.
  Using Nonlocal PP in Opt: NonLocalECP
   Number of samples loaded to each thread : 250 
  VMC Eavg = -3.6656e+01
  VMC Evar = 4.9115e-01
  Total weights = 2.5600e+05
  Execution time = 5.5269e-01
  </log>
</opt>
<opt stage="main" walkers="256000">
  <log>

*****************************************
Building overlap and Hamiltonian matrices
*****************************************

Among totally 30 optimized parameters, largest LM parameter change : 1.2112e-01 at parameter 26

******************************************************************************
Init Cost =   4.9115e-01    New Cost =   4.9840e-01  Delta Cost =   7.2496e-03
******************************************************************************

The new set of parameters is valid. Updating the trial wave function!

*****************************************************************************
Applying the update for shift_i =   1.0000e-02     and shift_s =   3.9062e-03
*****************************************************************************
  Execution time = 3.7430e+00
  </log>
  <optVariables href="Ca.log.s005.opt.xml">
uu_0 3.0805e-01 1 1  ON 0
uu_1 4.6911e-02 1 1  ON 1
uu_2 -6.1866e-02 1 1  ON 2
uu_3 -1.1602e-01 1 1  ON 3
uu_4 -1.2997e-01 1 1  ON 4
uu_5 -1.1893e-01 1 1  ON 5
uu_6 -5.9647e-02 1 1  ON 6
uu_7 1.4590e-02 1 1  ON 7
uu_8 5.8759e-02 1 1  ON 8
uu_9 4.3882e-02 1 1  ON 9
ud_0 5.1466e-01 1 1  ON 10
ud_1 1.6363e-01 1 1  ON 11
ud_2 4.4081e-02 1 1  ON 12
ud_3 -4.1233e-02 1 1  ON 13
ud_4 -8.4571e-02 1 1  ON 14
ud_5 -1.2201e-01 1 1  ON 15
ud_6 -1.2639e-01 1 1  ON 16
ud_7 -1.1994e-01 1 1  ON 17
ud_8 -1.0357e-01 1 1  ON 18
ud_9 -7.2104e-02 1 1  ON 19
eCa_0 -1.8106e+00 1 1  ON 20
eCa_1 -9.4516e-01 1 1  ON 21
eCa_2 -1.3008e-01 1 1  ON 22
eCa_3 4.0928e-01 1 1  ON 23
eCa_4 7.2097e-01 1 1  ON 24
eCa_5 8.2261e-01 1 1  ON 25
eCa_6 6.2849e-01 1 1  ON 26
eCa_7 2.5423e-01 1 1  ON 27
eCa_8 5.0250e-02 1 1  ON 28
eCa_9 1.0024e-03 1 1  ON 29
  </optVariables>
   Restore the number of walkers to 1, removing 0 walkers.
</opt>
</optimization-report>
  QMC Execution time = 3.8207e+00 secs
Loop execution max-interations = 5
  Reusing QMCFixedSampleLinearOptimize
 Using QMCCostFunction::QMCCostFunction

=========================================================
  Start QMCFixedSampleLinearOptimize
  File Root Ca.log.s006 append = no 
=========================================================
  Skip QMCDriver::putQMCInfo 
  Resetting Properties of the walkers 1 x 13

=========================================================
  Start VMC
  File Root Ca.log.s006 append = no 
=========================================================
  Using the current 1 walkers.
  Total number of walkers: 1.0240e+03
  Total weight: 1.0240e+03
  Resetting Properties of the walkers 1 x 13

<vmc function="put">
  qmc_counter=0  my_counter=5
  time step      = 1.5000e-01
  blocks         = 200
  steps          = 2
  substeps       = 5
  current        = 0
  target samples = 2.5600e+05
  walkers/mpi    = 1

  stepsbetweensamples = 1
<parameter name="blocks" condition="int">200</parameter>
<parameter name="blocks_between_recompute" condition="int">0</parameter>
<parameter name="check_properties" condition="int">100</parameter>
<parameter name="checkproperties" condition="int">100</parameter>
<parameter name="current" condition="int">0</parameter>
<parameter name="dmcwalkersperthread" condition="real">2.5000e+02</parameter>
<parameter name="maxcpusecs" condition="real">3.6000e+05</parameter>
<parameter name="record_configs" condition="int">0</parameter>
<parameter name="record_walkers" condition="int">1</parameter>
<parameter name="recordconfigs" condition="int">0</parameter>
<parameter name="recordwalkers" condition="int">1</parameter>
<parameter name="rewind" condition="int">0</parameter>
<parameter name="samples" condition="real">2.5600e+05</parameter>
<parameter name="samplesperthread" condition="real">2.5000e+02</parameter>
<parameter name="steps" condition="int">2</parameter>
<parameter name="stepsbetweensamples" condition="int">1</parameter>
<parameter name="store_configs" condition="int">0</parameter>
<parameter name="storeconfigs" condition="int">0</parameter>
<parameter name="sub_steps" condition="int">5</parameter>
<parameter name="substeps" condition="int">5</parameter>
<parameter name="tau" condition="au">1.5000e-01</parameter>
<parameter name="time_step" condition="au">1.5000e-01</parameter>
<parameter name="timestep" condition="au">1.5000e-01</parameter>
<parameter name="use_drift" condition="string">no</parameter>
<parameter name="usedrift" condition="string">no</parameter>
<parameter name="walkers" condition="int">1</parameter>
<parameter name="warmup_steps" condition="int">0</parameter>
<parameter name="warmupsteps" condition="int">0</parameter>
  DumpConfig==false Nothing (configurations, state) will be saved.
  Walker Samples are dumped every 1 steps.
</vmc>
  EstimatorManagerBase::add replace LocalEnergy estimator.
  EstimatorManagerBase::add replace LocalEnergy estimator.
<optimization-report>
<vmc stage="main" blocks="200">
  Cannot make clones again. Use existing 1 clones
  Initial partition of walkers 0 1 
  Using Particle by Particle moves
  Walker moves without drift
  Total Sample Size   =256000
  Walker distribution on root = 0 1 
  Using Locality Approximation
===== Memory Usage after the buffer registration =====
Available memory on node 0, free + buffers : 82660 MB
Memory footprint by rank 0 on node 0       : 83 MB
==================================================
====================================================
  SimpleFixedNodeBranch::finalize after a VMC block
    QMC counter        = 6
    time step          = 0.15
    reference energy   = -36.6251
    reference variance = 0.484248
====================================================
  Execution time = 2.9333e+00
</vmc>
<opt stage="setup">
  <log>
   Reading configurations from h5FileRoot Ca.log.s006
  QMCCostFunction is created with 1 threads.
  Using Nonlocal PP in Opt: NonLocalECP
   Number of samples loaded to each thread : 250 
  VMC Eavg = -3.6659e+01
  VMC Evar = 4.9330e-01
  Total weights = 2.5600e+05
  Execution time = 4.4264e-01
  </log>
</opt>
<opt stage="main" walkers="256000">
  <log>

*****************************************
Building overlap and Hamiltonian matrices
*****************************************

Among totally 30 optimized parameters, largest LM parameter change : 9.1485e-02 at parameter 26

******************************************************************************
Init Cost =   4.9330e-01    New Cost =   4.9478e-01  Delta Cost =   1.4824e-03
******************************************************************************

The new set of parameters is valid. Updating the trial wave function!

*****************************************************************************
Applying the update for shift_i =   1.0000e-02     and shift_s =   3.9062e-03
*****************************************************************************
  Execution time = 3.7582e+00
  </log>
  <optVariables href="Ca.log.s006.opt.xml">
uu_0 3.1689e-01 1 1  ON 0
uu_1 5.5138e-02 1 1  ON 1
uu_2 -5.3906e-02 1 1  ON 2
uu_3 -1.1297e-01 1 1  ON 3
uu_4 -1.3677e-01 1 1  ON 4
uu_5 -1.3016e-01 1 1  ON 5
uu_6 -7.5080e-02 1 1  ON 6
uu_7 4.5821e-03 1 1  ON 7
uu_8 5.8676e-02 1 1  ON 8
uu_9 4.5475e-02 1 1  ON 9
ud_0 5.2369e-01 1 1  ON 10
ud_1 1.7271e-01 1 1  ON 11
ud_2 5.1256e-02 1 1  ON 12
ud_3 -3.6885e-02 1 1  ON 13
ud_4 -8.4455e-02 1 1  ON 14
ud_5 -1.2282e-01 1 1  ON 15
ud_6 -1.3641e-01 1 1  ON 16
ud_7 -1.2937e-01 1 1  ON 17
ud_8 -1.0406e-01 1 1  ON 18
ud_9 -7.6811e-02 1 1  ON 19
eCa_0 -1.8975e+00 1 1  ON 20
eCa_1 -1.0260e+00 1 1  ON 21
eCa_2 -1.9701e-01 1 1  ON 22
eCa_3 3.8269e-01 1 1  ON 23
eCa_4 7.4113e-01 1 1  ON 24
eCa_5 8.8896e-01 1 1  ON 25
eCa_6 7.1997e-01 1 1  ON 26
eCa_7 3.1968e-01 1 1  ON 27
eCa_8 6.5620e-02 1 1  ON 28
eCa_9 9.9962e-04 1 1  ON 29
  </optVariables>
   Restore the number of walkers to 1, removing 0 walkers.
</opt>
</optimization-report>
  QMC Execution time = 3.7853e+00 secs
  Reusing QMCFixedSampleLinearOptimize
 Using QMCCostFunction::QMCCostFunction

=========================================================
  Start QMCFixedSampleLinearOptimize
  File Root Ca.log.s007 append = no 
=========================================================
  Skip QMCDriver::putQMCInfo 
  Resetting Properties of the walkers 1 x 13

=========================================================
  Start VMC
  File Root Ca.log.s007 append = no 
=========================================================
Using existing walkers 
  Resetting Properties of the walkers 1 x 13

<vmc function="put">
  qmc_counter=1  my_counter=6
  time step      = 1.5000e-01
  blocks         = 200
  steps          = 2
  substeps       = 5
  current        = 0
  target samples = 2.5600e+05
  walkers/mpi    = 1

  stepsbetweensamples = 1
<parameter name="blocks" condition="int">200</parameter>
<parameter name="blocks_between_recompute" condition="int">0</parameter>
<parameter name="check_properties" condition="int">100</parameter>
<parameter name="checkproperties" condition="int">100</parameter>
<parameter name="current" condition="int">0</parameter>
<parameter name="dmcwalkersperthread" condition="real">2.5000e+02</parameter>
<parameter name="maxcpusecs" condition="real">3.6000e+05</parameter>
<parameter name="record_configs" condition="int">0</parameter>
<parameter name="record_walkers" condition="int">1</parameter>
<parameter name="recordconfigs" condition="int">0</parameter>
<parameter name="recordwalkers" condition="int">1</parameter>
<parameter name="rewind" condition="int">0</parameter>
<parameter name="samples" condition="real">2.5600e+05</parameter>
<parameter name="samplesperthread" condition="real">2.5000e+02</parameter>
<parameter name="steps" condition="int">2</parameter>
<parameter name="stepsbetweensamples" condition="int">1</parameter>
<parameter name="store_configs" condition="int">0</parameter>
<parameter name="storeconfigs" condition="int">0</parameter>
<parameter name="sub_steps" condition="int">5</parameter>
<parameter name="substeps" condition="int">5</parameter>
<parameter name="tau" condition="au">1.5000e-01</parameter>
<parameter name="time_step" condition="au">1.5000e-01</parameter>
<parameter name="timestep" condition="au">1.5000e-01</parameter>
<parameter name="use_drift" condition="string">no</parameter>
<parameter name="usedrift" condition="string">no</parameter>
<parameter name="walkers" condition="int">1</parameter>
<parameter name="warmup_steps" condition="int">0</parameter>
<parameter name="warmupsteps" condition="int">0</parameter>
  DumpConfig==false Nothing (configurations, state) will be saved.
  Walker Samples are dumped every 1 steps.
</vmc>
  EstimatorManagerBase::add replace LocalEnergy estimator.
  EstimatorManagerBase::add replace LocalEnergy estimator.
<optimization-report>
<vmc stage="main" blocks="200">
  Cannot make clones again. Use existing 1 clones
  Initial partition of walkers 0 1 
  Using Particle by Particle moves
  Walker moves without drift
  Total Sample Size   =256000
  Walker distribution on root = 0 1 
  Using Locality Approximation
===== Memory Usage after the buffer registration =====
Available memory on node 0, free + buffers : 82658 MB
Memory footprint by rank 0 on node 0       : 85 MB
==================================================
====================================================
  SimpleFixedNodeBranch::finalize after a VMC block
    QMC counter        = 7
    time step          = 0.15
    reference energy   = -36.6269
    reference variance = 0.56862
====================================================
  Execution time = 2.2563e+00
</vmc>
<opt stage="setup">
  <log>
   Reading configurations from h5FileRoot Ca.log.s007
  QMCCostFunction is created with 1 threads.
  Using Nonlocal PP in Opt: NonLocalECP
   Number of samples loaded to each thread : 250 
  VMC Eavg = -3.6661e+01
  VMC Evar = 4.9854e-01
  Total weights = 2.5600e+05
  Execution time = 3.6438e-01
  </log>
</opt>
<opt stage="main" walkers="256000">
  <log>

*****************************************
Building overlap and Hamiltonian matrices
*****************************************

Among totally 30 optimized parameters, largest LM parameter change : 8.4751e-02 at parameter 26

******************************************************************************
Init Cost =   4.9854e-01    New Cost =   5.0131e-01  Delta Cost =   2.7754e-03
******************************************************************************

The new set of parameters is valid. Updating the trial wave function!

*****************************************************************************
Applying the update for shift_i =   1.0000e-02     and shift_s =   3.9062e-03
*****************************************************************************
  Execution time = 2.9436e+00
  </log>
  <optVariables href="Ca.log.s007.opt.xml">
uu_0 3.2100e-01 1 1  ON 0
uu_1 5.9426e-02 1 1  ON 1
uu_2 -5.2061e-02 1 1  ON 2
uu_3 -1.1333e-01 1 1  ON 3
uu_4 -1.3963e-01 1 1  ON 4
uu_5 -1.3951e-01 1 1  ON 5
uu_6 -8.9870e-02 1 1  ON 6
uu_7 5.3986e-03 1 1  ON 7
uu_8 7.5664e-02 1 1  ON 8
uu_9 4.9867e-02 1 1  ON 9
ud_0 5.3251e-01 1 1  ON 10
ud_1 1.8019e-01 1 1  ON 11
ud_2 5.8656e-02 1 1  ON 12
ud_3 -3.1214e-02 1 1  ON 13
ud_4 -8.1871e-02 1 1  ON 14
ud_5 -1.2739e-01 1 1  ON 15
ud_6 -1.4159e-01 1 1  ON 16
ud_7 -1.2861e-01 1 1  ON 17
ud_8 -1.0085e-01 1 1  ON 18
ud_9 -8.0223e-02 1 1  ON 19
eCa_0 -1.9689e+00 1 1  ON 20
eCa_1 -1.0917e+00 1 1  ON 21
eCa_2 -2.5131e-01 1 1  ON 22
eCa_3 3.5504e-01 1 1  ON 23
eCa_4 7.4624e-01 1 1  ON 24
eCa_5 9.2817e-01 1 1  ON 25
eCa_6 8.0472e-01 1 1  ON 26
eCa_7 3.9220e-01 1 1  ON 27
eCa_8 8.7157e-02 1 1  ON 28
eCa_9 3.8254e-05 1 1  ON 29
  </optVariables>
   Restore the number of walkers to 1, removing 0 walkers.
</opt>
</optimization-report>
  QMC Execution time = 2.9527e+00 secs
  Reusing QMCFixedSampleLinearOptimize
 Using QMCCostFunction::QMCCostFunction

=========================================================
  Start QMCFixedSampleLinearOptimize
  File Root Ca.log.s008 append = no 
=========================================================
  Skip QMCDriver::putQMCInfo 
  Resetting Properties of the walkers 1 x 13

=========================================================
  Start VMC
  File Root Ca.log.s008 append = no 
=========================================================
Using existing walkers 
  Resetting Properties of the walkers 1 x 13

<vmc function="put">
  qmc_counter=2  my_counter=7
  time step      = 1.5000e-01
  blocks         = 200
  steps          = 2
  substeps       = 5
  current        = 0
  target samples = 2.5600e+05
  walkers/mpi    = 1

  stepsbetweensamples = 1
<parameter name="blocks" condition="int">200</parameter>
<parameter name="blocks_between_recompute" condition="int">0</parameter>
<parameter name="check_properties" condition="int">100</parameter>
<parameter name="checkproperties" condition="int">100</parameter>
<parameter name="current" condition="int">0</parameter>
<parameter name="dmcwalkersperthread" condition="real">2.5000e+02</parameter>
<parameter name="maxcpusecs" condition="real">3.6000e+05</parameter>
<parameter name="record_configs" condition="int">0</parameter>
<parameter name="record_walkers" condition="int">1</parameter>
<parameter name="recordconfigs" condition="int">0</parameter>
<parameter name="recordwalkers" condition="int">1</parameter>
<parameter name="rewind" condition="int">0</parameter>
<parameter name="samples" condition="real">2.5600e+05</parameter>
<parameter name="samplesperthread" condition="real">2.5000e+02</parameter>
<parameter name="steps" condition="int">2</parameter>
<parameter name="stepsbetweensamples" condition="int">1</parameter>
<parameter name="store_configs" condition="int">0</parameter>
<parameter name="storeconfigs" condition="int">0</parameter>
<parameter name="sub_steps" condition="int">5</parameter>
<parameter name="substeps" condition="int">5</parameter>
<parameter name="tau" condition="au">1.5000e-01</parameter>
<parameter name="time_step" condition="au">1.5000e-01</parameter>
<parameter name="timestep" condition="au">1.5000e-01</parameter>
<parameter name="use_drift" condition="string">no</parameter>
<parameter name="usedrift" condition="string">no</parameter>
<parameter name="walkers" condition="int">1</parameter>
<parameter name="warmup_steps" condition="int">0</parameter>
<parameter name="warmupsteps" condition="int">0</parameter>
  DumpConfig==false Nothing (configurations, state) will be saved.
  Walker Samples are dumped every 1 steps.
</vmc>
  EstimatorManagerBase::add replace LocalEnergy estimator.
  EstimatorManagerBase::add replace LocalEnergy estimator.
<optimization-report>
<vmc stage="main" blocks="200">
  Cannot make clones again. Use existing 1 clones
  Initial partition of walkers 0 1 
  Using Particle by Particle moves
  Walker moves without drift
  Total Sample Size   =256000
  Walker distribution on root = 0 1 
  Using Locality Approximation
===== Memory Usage after the buffer registration =====
Available memory on node 0, free + buffers : 82656 MB
Memory footprint by rank 0 on node 0       : 87 MB
==================================================
====================================================
  SimpleFixedNodeBranch::finalize after a VMC block
    QMC counter        = 8
    time step          = 0.15
    reference energy   = -36.6508
    reference variance = 0.471202
====================================================
  Execution time = 2.0846e+00
</vmc>
<opt stage="setup">
  <log>
   Reading configurations from h5FileRoot Ca.log.s008
  QMCCostFunction is created with 1 threads.
  Using Nonlocal PP in Opt: NonLocalECP
   Number of samples loaded to each thread : 250 
  VMC Eavg = -3.6659e+01
  VMC Evar = 5.0015e-01
  Total weights = 2.5600e+05
  Execution time = 3.2323e-01
  </log>
</opt>
<opt stage="main" walkers="256000">
  <log>

*****************************************
Building overlap and Hamiltonian matrices
*****************************************

Among totally 30 optimized parameters, largest LM parameter change : 7.3234e-02 at parameter 26

******************************************************************************
Init Cost =   5.0015e-01    New Cost =   5.0181e-01  Delta Cost =   1.6534e-03
******************************************************************************

The new set of parameters is valid. Updating the trial wave function!

*****************************************************************************
Applying the update for shift_i =   1.0000e-02     and shift_s =   3.9062e-03
*****************************************************************************
  Execution time = 2.7028e+00
  </log>
  <optVariables href="Ca.log.s008.opt.xml">
uu_0 3.2959e-01 1 1  ON 0
uu_1 6.6395e-02 1 1  ON 1
uu_2 -4.4121e-02 1 1  ON 2
uu_3 -1.0756e-01 1 1  ON 3
uu_4 -1.3501e-01 1 1  ON 4
uu_5 -1.4192e-01 1 1  ON 5
uu_6 -9.9601e-02 1 1  ON 6
uu_7 -6.5864e-03 1 1  ON 7
uu_8 6.8853e-02 1 1  ON 8
uu_9 5.5240e-02 1 1  ON 9
ud_0 5.4350e-01 1 1  ON 10
ud_1 1.9115e-01 1 1  ON 11
ud_2 6.7369e-02 1 1  ON 12
ud_3 -2.5831e-02 1 1  ON 13
ud_4 -7.7011e-02 1 1  ON 14
ud_5 -1.2622e-01 1 1  ON 15
ud_6 -1.4485e-01 1 1  ON 16
ud_7 -1.3272e-01 1 1  ON 17
ud_8 -1.0760e-01 1 1  ON 18
ud_9 -7.9336e-02 1 1  ON 19
eCa_0 -2.0236e+00 1 1  ON 20
eCa_1 -1.1449e+00 1 1  ON 21
eCa_2 -2.9265e-01 1 1  ON 22
eCa_3 3.2506e-01 1 1  ON 23
eCa_4 7.3790e-01 1 1  ON 24
eCa_5 9.6473e-01 1 1  ON 25
eCa_6 8.7796e-01 1 1  ON 26
eCa_7 4.5430e-01 1 1  ON 27
eCa_8 1.0423e-01 1 1  ON 28
eCa_9 2.4958e-03 1 1  ON 29
  </optVariables>
   Restore the number of walkers to 1, removing 0 walkers.
</opt>
</optimization-report>
  QMC Execution time = 2.7120e+00 secs
  Reusing QMCFixedSampleLinearOptimize
 Using QMCCostFunction::QMCCostFunction

=========================================================
  Start QMCFixedSampleLinearOptimize
  File Root Ca.log.s009 append = no 
=========================================================
  Skip QMCDriver::putQMCInfo 
  Resetting Properties of the walkers 1 x 13

=========================================================
  Start VMC
  File Root Ca.log.s009 append = no 
=========================================================
Using existing walkers 
  Resetting Properties of the walkers 1 x 13

<vmc function="put">
  qmc_counter=3  my_counter=8
  time step      = 1.5000e-01
  blocks         = 200
  steps          = 2
  substeps       = 5
  current        = 0
  target samples = 2.5600e+05
  walkers/mpi    = 1

  stepsbetweensamples = 1
<parameter name="blocks" condition="int">200</parameter>
<parameter name="blocks_between_recompute" condition="int">0</parameter>
<parameter name="check_properties" condition="int">100</parameter>
<parameter name="checkproperties" condition="int">100</parameter>
<parameter name="current" condition="int">0</parameter>
<parameter name="dmcwalkersperthread" condition="real">2.5000e+02</parameter>
<parameter name="maxcpusecs" condition="real">3.6000e+05</parameter>
<parameter name="record_configs" condition="int">0</parameter>
<parameter name="record_walkers" condition="int">1</parameter>
<parameter name="recordconfigs" condition="int">0</parameter>
<parameter name="recordwalkers" condition="int">1</parameter>
<parameter name="rewind" condition="int">0</parameter>
<parameter name="samples" condition="real">2.5600e+05</parameter>
<parameter name="samplesperthread" condition="real">2.5000e+02</parameter>
<parameter name="steps" condition="int">2</parameter>
<parameter name="stepsbetweensamples" condition="int">1</parameter>
<parameter name="store_configs" condition="int">0</parameter>
<parameter name="storeconfigs" condition="int">0</parameter>
<parameter name="sub_steps" condition="int">5</parameter>
<parameter name="substeps" condition="int">5</parameter>
<parameter name="tau" condition="au">1.5000e-01</parameter>
<parameter name="time_step" condition="au">1.5000e-01</parameter>
<parameter name="timestep" condition="au">1.5000e-01</parameter>
<parameter name="use_drift" condition="string">no</parameter>
<parameter name="usedrift" condition="string">no</parameter>
<parameter name="walkers" condition="int">1</parameter>
<parameter name="warmup_steps" condition="int">0</parameter>
<parameter name="warmupsteps" condition="int">0</parameter>
  DumpConfig==false Nothing (configurations, state) will be saved.
  Walker Samples are dumped every 1 steps.
</vmc>
  EstimatorManagerBase::add replace LocalEnergy estimator.
  EstimatorManagerBase::add replace LocalEnergy estimator.
<optimization-report>
<vmc stage="main" blocks="200">
  Cannot make clones again. Use existing 1 clones
  Initial partition of walkers 0 1 
  Using Particle by Particle moves
  Walker moves without drift
  Total Sample Size   =256000
  Walker distribution on root = 0 1 
  Using Locality Approximation
===== Memory Usage after the buffer registration =====
Available memory on node 0, free + buffers : 82654 MB
Memory footprint by rank 0 on node 0       : 88 MB
==================================================
====================================================
  SimpleFixedNodeBranch::finalize after a VMC block
    QMC counter        = 9
    time step          = 0.15
    reference energy   = -36.6826
    reference variance = 0.526643
====================================================
  Execution time = 2.0949e+00
</vmc>
<opt stage="setup">
  <log>
   Reading configurations from h5FileRoot Ca.log.s009
  QMCCostFunction is created with 1 threads.
  Using Nonlocal PP in Opt: NonLocalECP
   Number of samples loaded to each thread : 250 
  VMC Eavg = -3.6661e+01
  VMC Evar = 4.9279e-01
  Total weights = 2.5600e+05
  Execution time = 3.2577e-01
  </log>
</opt>
<opt stage="main" walkers="256000">
  <log>

*****************************************
Building overlap and Hamiltonian matrices
*****************************************

Among totally 30 optimized parameters, largest LM parameter change : 6.6968e-02 at parameter 27

******************************************************************************
Init Cost =   4.9279e-01    New Cost =   4.9396e-01  Delta Cost =   1.1713e-03
******************************************************************************

The new set of parameters is valid. Updating the trial wave function!

*****************************************************************************
Applying the update for shift_i =   1.0000e-02     and shift_s =   3.9062e-03
*****************************************************************************
  Execution time = 2.7136e+00
  </log>
  <optVariables href="Ca.log.s009.opt.xml">
uu_0 3.3375e-01 1 1  ON 0
uu_1 7.1092e-02 1 1  ON 1
uu_2 -4.1016e-02 1 1  ON 2
uu_3 -1.0611e-01 1 1  ON 3
uu_4 -1.3486e-01 1 1  ON 4
uu_5 -1.4506e-01 1 1  ON 5
uu_6 -1.0626e-01 1 1  ON 6
uu_7 -1.3707e-02 1 1  ON 7
uu_8 6.5423e-02 1 1  ON 8
uu_9 6.7739e-02 1 1  ON 9
ud_0 5.5174e-01 1 1  ON 10
ud_1 1.9959e-01 1 1  ON 11
ud_2 7.4635e-02 1 1  ON 12
ud_3 -2.0336e-02 1 1  ON 13
ud_4 -7.4136e-02 1 1  ON 14
ud_5 -1.2735e-01 1 1  ON 15
ud_6 -1.4844e-01 1 1  ON 16
ud_7 -1.4155e-01 1 1  ON 17
ud_8 -1.1293e-01 1 1  ON 18
ud_9 -8.2917e-02 1 1  ON 19
eCa_0 -2.0746e+00 1 1  ON 20
eCa_1 -1.1921e+00 1 1  ON 21
eCa_2 -3.2928e-01 1 1  ON 22
eCa_3 3.0130e-01 1 1  ON 23
eCa_4 7.3466e-01 1 1  ON 24
eCa_5 9.7901e-01 1 1  ON 25
eCa_6 9.3976e-01 1 1  ON 26
eCa_7 5.2127e-01 1 1  ON 27
eCa_8 1.2230e-01 1 1  ON 28
eCa_9 5.7578e-03 1 1  ON 29
  </optVariables>
   Restore the number of walkers to 1, removing 0 walkers.
</opt>
</optimization-report>
  QMC Execution time = 2.7223e+00 secs
  Reusing QMCFixedSampleLinearOptimize
 Using QMCCostFunction::QMCCostFunction

=========================================================
  Start QMCFixedSampleLinearOptimize
  File Root Ca.log.s010 append = no 
=========================================================
  Skip QMCDriver::putQMCInfo 
  Resetting Properties of the walkers 1 x 13

=========================================================
  Start VMC
  File Root Ca.log.s010 append = no 
=========================================================
Using existing walkers 
  Resetting Properties of the walkers 1 x 13

<vmc function="put">
  qmc_counter=4  my_counter=9
  time step      = 1.5000e-01
  blocks         = 200
  steps          = 2
  substeps       = 5
  current        = 0
  target samples = 2.5600e+05
  walkers/mpi    = 1

  stepsbetweensamples = 1
<parameter name="blocks" condition="int">200</parameter>
<parameter name="blocks_between_recompute" condition="int">0</parameter>
<parameter name="check_properties" condition="int">100</parameter>
<parameter name="checkproperties" condition="int">100</parameter>
<parameter name="current" condition="int">0</parameter>
<parameter name="dmcwalkersperthread" condition="real">2.5000e+02</parameter>
<parameter name="maxcpusecs" condition="real">3.6000e+05</parameter>
<parameter name="record_configs" condition="int">0</parameter>
<parameter name="record_walkers" condition="int">1</parameter>
<parameter name="recordconfigs" condition="int">0</parameter>
<parameter name="recordwalkers" condition="int">1</parameter>
<parameter name="rewind" condition="int">0</parameter>
<parameter name="samples" condition="real">2.5600e+05</parameter>
<parameter name="samplesperthread" condition="real">2.5000e+02</parameter>
<parameter name="steps" condition="int">2</parameter>
<parameter name="stepsbetweensamples" condition="int">1</parameter>
<parameter name="store_configs" condition="int">0</parameter>
<parameter name="storeconfigs" condition="int">0</parameter>
<parameter name="sub_steps" condition="int">5</parameter>
<parameter name="substeps" condition="int">5</parameter>
<parameter name="tau" condition="au">1.5000e-01</parameter>
<parameter name="time_step" condition="au">1.5000e-01</parameter>
<parameter name="timestep" condition="au">1.5000e-01</parameter>
<parameter name="use_drift" condition="string">no</parameter>
<parameter name="usedrift" condition="string">no</parameter>
<parameter name="walkers" condition="int">1</parameter>
<parameter name="warmup_steps" condition="int">0</parameter>
<parameter name="warmupsteps" condition="int">0</parameter>
  DumpConfig==false Nothing (configurations, state) will be saved.
  Walker Samples are dumped every 1 steps.
</vmc>
  EstimatorManagerBase::add replace LocalEnergy estimator.
  EstimatorManagerBase::add replace LocalEnergy estimator.
<optimization-report>
<vmc stage="main" blocks="200">
  Cannot make clones again. Use existing 1 clones
  Initial partition of walkers 0 1 
  Using Particle by Particle moves
  Walker moves without drift
  Total Sample Size   =256000
  Walker distribution on root = 0 1 
  Using Locality Approximation
===== Memory Usage after the buffer registration =====
Available memory on node 0, free + buffers : 82652 MB
Memory footprint by rank 0 on node 0       : 90 MB
==================================================
====================================================
  SimpleFixedNodeBranch::finalize after a VMC block
    QMC counter        = 10
    time step          = 0.15
    reference energy   = -36.6888
    reference variance = 0.407989
====================================================
  Execution time = 2.0356e+00
</vmc>
<opt stage="setup">
  <log>
   Reading configurations from h5FileRoot Ca.log.s010
  QMCCostFunction is created with 1 threads.
  Using Nonlocal PP in Opt: NonLocalECP
   Number of samples loaded to each thread : 250 
  VMC Eavg = -3.6658e+01
  VMC Evar = 4.9884e-01
  Total weights = 2.5600e+05
  Execution time = 2.8228e-01
  </log>
</opt>
<opt stage="main" walkers="256000">
  <log>

*****************************************
Building overlap and Hamiltonian matrices
*****************************************

Among totally 30 optimized parameters, largest LM parameter change : 6.2331e-02 at parameter 27

******************************************************************************
Init Cost =   4.9884e-01    New Cost =   5.0061e-01  Delta Cost =   1.7768e-03
******************************************************************************

The new set of parameters is valid. Updating the trial wave function!

*****************************************************************************
Applying the update for shift_i =   1.0000e-02     and shift_s =   3.9062e-03
*****************************************************************************
  Execution time = 2.5820e+00
  </log>
  <optVariables href="Ca.log.s010.opt.xml">
uu_0 3.3374e-01 1 1  ON 0
uu_1 7.0800e-02 1 1  ON 1
uu_2 -4.2162e-02 1 1  ON 2
uu_3 -1.0766e-01 1 1  ON 3
uu_4 -1.3798e-01 1 1  ON 4
uu_5 -1.4776e-01 1 1  ON 5
uu_6 -1.1739e-01 1 1  ON 6
uu_7 -3.2969e-02 1 1  ON 7
uu_8 6.7190e-02 1 1  ON 8
uu_9 7.8354e-02 1 1  ON 9
ud_0 5.5573e-01 1 1  ON 10
ud_1 2.0153e-01 1 1  ON 11
ud_2 7.8362e-02 1 1  ON 12
ud_3 -1.6620e-02 1 1  ON 13
ud_4 -7.0514e-02 1 1  ON 14
ud_5 -1.2810e-01 1 1  ON 15
ud_6 -1.5932e-01 1 1  ON 16
ud_7 -1.5020e-01 1 1  ON 17
ud_8 -1.2882e-01 1 1  ON 18
ud_9 -9.2544e-02 1 1  ON 19
eCa_0 -2.1140e+00 1 1  ON 20
eCa_1 -1.2316e+00 1 1  ON 21
eCa_2 -3.6477e-01 1 1  ON 22
eCa_3 2.6909e-01 1 1  ON 23
eCa_4 7.1734e-01 1 1  ON 24
eCa_5 9.9903e-01 1 1  ON 25
eCa_6 9.8826e-01 1 1  ON 26
eCa_7 5.8360e-01 1 1  ON 27
eCa_8 1.4476e-01 1 1  ON 28
eCa_9 9.6800e-03 1 1  ON 29
  </optVariables>
   Restore the number of walkers to 1, removing 0 walkers.
</opt>
</optimization-report>
  QMC Execution time = 2.6315e+00 secs
Loop execution max-interations = 10
  Reusing QMCFixedSampleLinearOptimize
 Using QMCCostFunction::QMCCostFunction

=========================================================
  Start QMCFixedSampleLinearOptimize
  File Root Ca.log.s011 append = no 
=========================================================
  Skip QMCDriver::putQMCInfo 
  Resetting Properties of the walkers 1 x 13

=========================================================
  Start VMC
  File Root Ca.log.s011 append = no 
=========================================================
  Using the current 1 walkers.
  Total number of walkers: 1.0240e+03
  Total weight: 1.0240e+03
  Resetting Properties of the walkers 1 x 13

<vmc function="put">
  qmc_counter=0  my_counter=10
  time step      = 1.5000e-01
  blocks         = 200
  steps          = 3
  substeps       = 5
  current        = 0
  target samples = 5.1200e+05
  walkers/mpi    = 1

  stepsbetweensamples = 1
<parameter name="blocks" condition="int">200</parameter>
<parameter name="blocks_between_recompute" condition="int">0</parameter>
<parameter name="check_properties" condition="int">100</parameter>
<parameter name="checkproperties" condition="int">100</parameter>
<parameter name="current" condition="int">0</parameter>
<parameter name="dmcwalkersperthread" condition="real">5.0000e+02</parameter>
<parameter name="maxcpusecs" condition="real">3.6000e+05</parameter>
<parameter name="record_configs" condition="int">0</parameter>
<parameter name="record_walkers" condition="int">1</parameter>
<parameter name="recordconfigs" condition="int">0</parameter>
<parameter name="recordwalkers" condition="int">1</parameter>
<parameter name="rewind" condition="int">0</parameter>
<parameter name="samples" condition="real">5.1200e+05</parameter>
<parameter name="samplesperthread" condition="real">5.0000e+02</parameter>
<parameter name="steps" condition="int">3</parameter>
<parameter name="stepsbetweensamples" condition="int">1</parameter>
<parameter name="store_configs" condition="int">0</parameter>
<parameter name="storeconfigs" condition="int">0</parameter>
<parameter name="sub_steps" condition="int">5</parameter>
<parameter name="substeps" condition="int">5</parameter>
<parameter name="tau" condition="au">1.5000e-01</parameter>
<parameter name="time_step" condition="au">1.5000e-01</parameter>
<parameter name="timestep" condition="au">1.5000e-01</parameter>
<parameter name="use_drift" condition="string">no</parameter>
<parameter name="usedrift" condition="string">no</parameter>
<parameter name="walkers" condition="int">1</parameter>
<parameter name="warmup_steps" condition="int">0</parameter>
<parameter name="warmupsteps" condition="int">0</parameter>
  DumpConfig==false Nothing (configurations, state) will be saved.
  Walker Samples are dumped every 1 steps.
</vmc>
  EstimatorManagerBase::add replace LocalEnergy estimator.
  EstimatorManagerBase::add replace LocalEnergy estimator.
<optimization-report>
<vmc stage="main" blocks="200">
  Cannot make clones again. Use existing 1 clones
  Initial partition of walkers 0 1 
  Using Particle by Particle moves
  Walker moves without drift
  Total Sample Size   =512000
  Walker distribution on root = 0 1 
  Using Locality Approximation
===== Memory Usage after the buffer registration =====
Available memory on node 0, free + buffers : 82650 MB
Memory footprint by rank 0 on node 0       : 92 MB
==================================================
====================================================
  SimpleFixedNodeBranch::finalize after a VMC block
    QMC counter        = 11
    time step          = 0.15
    reference energy   = -36.6583
    reference variance = 0.530098
====================================================
  Execution time = 2.4959e+00
</vmc>
<opt stage="setup">
  <log>
   Reading configurations from h5FileRoot Ca.log.s011
  QMCCostFunction is created with 1 threads.
  Using Nonlocal PP in Opt: NonLocalECP
   Number of samples loaded to each thread : 500 
  VMC Eavg = -3.6661e+01
  VMC Evar = 5.0811e-01
  Total weights = 5.1200e+05
  Execution time = 5.3992e-01
  </log>
</opt>
<opt stage="main" walkers="512000">
  <log>

*****************************************
Building overlap and Hamiltonian matrices
*****************************************

Among totally 30 optimized parameters, largest LM parameter change : 6.1682e-02 at parameter 27

******************************************************************************
Init Cost =  -3.4802e+01    New Cost =  -3.4803e+01  Delta Cost =  -1.7755e-04
******************************************************************************

The new set of parameters is valid. Updating the trial wave function!

*****************************************************************************
Applying the update for shift_i =   1.0000e-02     and shift_s =   3.9062e-03
*****************************************************************************
  Execution time = 3.5463e+00
  </log>
  <optVariables href="Ca.log.s011.opt.xml">
uu_0 3.3797e-01 1 1  ON 0
uu_1 7.4612e-02 1 1  ON 1
uu_2 -3.8828e-02 1 1  ON 2
uu_3 -1.0577e-01 1 1  ON 3
uu_4 -1.3772e-01 1 1  ON 4
uu_5 -1.5189e-01 1 1  ON 5
uu_6 -1.2423e-01 1 1  ON 6
uu_7 -3.7094e-02 1 1  ON 7
uu_8 6.0602e-02 1 1  ON 8
uu_9 7.8723e-02 1 1  ON 9
ud_0 5.6014e-01 1 1  ON 10
ud_1 2.0675e-01 1 1  ON 11
ud_2 8.2080e-02 1 1  ON 12
ud_3 -1.2581e-02 1 1  ON 13
ud_4 -6.8424e-02 1 1  ON 14
ud_5 -1.2579e-01 1 1  ON 15
ud_6 -1.5614e-01 1 1  ON 16
ud_7 -1.5494e-01 1 1  ON 17
ud_8 -1.3233e-01 1 1  ON 18
ud_9 -9.9576e-02 1 1  ON 19
eCa_0 -2.1482e+00 1 1  ON 20
eCa_1 -1.2615e+00 1 1  ON 21
eCa_2 -3.9111e-01 1 1  ON 22
eCa_3 2.4885e-01 1 1  ON 23
eCa_4 7.0507e-01 1 1  ON 24
eCa_5 1.0020e+00 1 1  ON 25
eCa_6 1.0231e+00 1 1  ON 26
eCa_7 6.4528e-01 1 1  ON 27
eCa_8 1.6707e-01 1 1  ON 28
eCa_9 1.0750e-02 1 1  ON 29
  </optVariables>
   Restore the number of walkers to 1, removing 0 walkers.
</opt>
</optimization-report>
  QMC Execution time = 3.5552e+00 secs
  Reusing QMCFixedSampleLinearOptimize
 Using QMCCostFunction::QMCCostFunction

=========================================================
  Start QMCFixedSampleLinearOptimize
  File Root Ca.log.s012 append = no 
=========================================================
  Skip QMCDriver::putQMCInfo 
  Resetting Properties of the walkers 1 x 13

=========================================================
  Start VMC
  File Root Ca.log.s012 append = no 
=========================================================
Using existing walkers 
  Resetting Properties of the walkers 1 x 13

<vmc function="put">
  qmc_counter=1  my_counter=11
  time step      = 1.5000e-01
  blocks         = 200
  steps          = 3
  substeps       = 5
  current        = 0
  target samples = 5.1200e+05
  walkers/mpi    = 1

  stepsbetweensamples = 1
<parameter name="blocks" condition="int">200</parameter>
<parameter name="blocks_between_recompute" condition="int">0</parameter>
<parameter name="check_properties" condition="int">100</parameter>
<parameter name="checkproperties" condition="int">100</parameter>
<parameter name="current" condition="int">0</parameter>
<parameter name="dmcwalkersperthread" condition="real">5.0000e+02</parameter>
<parameter name="maxcpusecs" condition="real">3.6000e+05</parameter>
<parameter name="record_configs" condition="int">0</parameter>
<parameter name="record_walkers" condition="int">1</parameter>
<parameter name="recordconfigs" condition="int">0</parameter>
<parameter name="recordwalkers" condition="int">1</parameter>
<parameter name="rewind" condition="int">0</parameter>
<parameter name="samples" condition="real">5.1200e+05</parameter>
<parameter name="samplesperthread" condition="real">5.0000e+02</parameter>
<parameter name="steps" condition="int">3</parameter>
<parameter name="stepsbetweensamples" condition="int">1</parameter>
<parameter name="store_configs" condition="int">0</parameter>
<parameter name="storeconfigs" condition="int">0</parameter>
<parameter name="sub_steps" condition="int">5</parameter>
<parameter name="substeps" condition="int">5</parameter>
<parameter name="tau" condition="au">1.5000e-01</parameter>
<parameter name="time_step" condition="au">1.5000e-01</parameter>
<parameter name="timestep" condition="au">1.5000e-01</parameter>
<parameter name="use_drift" condition="string">no</parameter>
[...]
</vmc>
<opt stage="setup">
  <log>
   Reading configurations from h5FileRoot Ca.log.s017
  QMCCostFunction is created with 1 threads.
  Using Nonlocal PP in Opt: NonLocalECP
   Number of samples loaded to each thread : 500 
  VMC Eavg = -3.6660e+01
  VMC Evar = 5.1522e-01
  Total weights = 5.1200e+05
  Execution time = 4.9177e-01
  </log>
</opt>
<opt stage="main" walkers="512000">
  <log>

*****************************************
Building overlap and Hamiltonian matrices
*****************************************

Among totally 30 optimized parameters, largest LM parameter change : 4.1754e-02 at parameter 27

******************************************************************************
Init Cost =  -3.4802e+01    New Cost =  -3.4802e+01  Delta Cost =  -1.1980e-04
******************************************************************************

The new set of parameters is valid. Updating the trial wave function!

*****************************************************************************
Applying the update for shift_i =   1.0000e-02     and shift_s =   3.9062e-03
*****************************************************************************
  Execution time = 2.9893e+00
  </log>
  <optVariables href="Ca.log.s017.opt.xml">
uu_0 3.4601e-01 1 1  ON 0
uu_1 8.0032e-02 1 1  ON 1
uu_2 -3.4379e-02 1 1  ON 2
uu_3 -1.0308e-01 1 1  ON 3
uu_4 -1.3798e-01 1 1  ON 4
uu_5 -1.5917e-01 1 1  ON 5
uu_6 -1.4633e-01 1 1  ON 6
uu_7 -7.8475e-02 1 1  ON 7
uu_8 4.6680e-02 1 1  ON 8
uu_9 9.8209e-02 1 1  ON 9
ud_0 5.8023e-01 1 1  ON 10
ud_1 2.2672e-01 1 1  ON 11
ud_2 1.0069e-01 1 1  ON 12
ud_3 2.9291e-03 1 1  ON 13
ud_4 -5.7425e-02 1 1  ON 14
ud_5 -1.2034e-01 1 1  ON 15
ud_6 -1.6295e-01 1 1  ON 16
ud_7 -1.7426e-01 1 1  ON 17
ud_8 -1.4172e-01 1 1  ON 18
ud_9 -1.1263e-01 1 1  ON 19
eCa_0 -2.3017e+00 1 1  ON 20
eCa_1 -1.4105e+00 1 1  ON 21
eCa_2 -5.2534e-01 1 1  ON 22
eCa_3 1.4398e-01 1 1  ON 23
eCa_4 6.3976e-01 1 1  ON 24
eCa_5 1.0152e+00 1 1  ON 25
eCa_6 1.1592e+00 1 1  ON 26
eCa_7 9.2593e-01 1 1  ON 27
eCa_8 3.2126e-01 1 1  ON 28
eCa_9 3.0543e-02 1 1  ON 29
  </optVariables>
   Restore the number of walkers to 1, removing 0 walkers.
</opt>
</optimization-report>
  QMC Execution time = 2.9983e+00 secs
  Reusing QMCFixedSampleLinearOptimize
 Using QMCCostFunction::QMCCostFunction

=========================================================
  Start QMCFixedSampleLinearOptimize
  File Root Ca.log.s018 append = no 
=========================================================
  Skip QMCDriver::putQMCInfo 
  Resetting Properties of the walkers 1 x 13

=========================================================
  Start VMC
  File Root Ca.log.s018 append = no 
=========================================================
Using existing walkers 
  Resetting Properties of the walkers 1 x 13

<vmc function="put">
  qmc_counter=7  my_counter=17
  time step      = 1.5000e-01
  blocks         = 200
  steps          = 3
  substeps       = 5
  current        = 0
  target samples = 5.1200e+05
  walkers/mpi    = 1

  stepsbetweensamples = 1
<parameter name="blocks" condition="int">200</parameter>
<parameter name="blocks_between_recompute" condition="int">0</parameter>
<parameter name="check_properties" condition="int">100</parameter>
<parameter name="checkproperties" condition="int">100</parameter>
<parameter name="current" condition="int">0</parameter>
<parameter name="dmcwalkersperthread" condition="real">5.0000e+02</parameter>
<parameter name="maxcpusecs" condition="real">3.6000e+05</parameter>
<parameter name="record_configs" condition="int">0</parameter>
<parameter name="record_walkers" condition="int">1</parameter>
<parameter name="recordconfigs" condition="int">0</parameter>
<parameter name="recordwalkers" condition="int">1</parameter>
<parameter name="rewind" condition="int">0</parameter>
<parameter name="samples" condition="real">5.1200e+05</parameter>
<parameter name="samplesperthread" condition="real">5.0000e+02</parameter>
<parameter name="steps" condition="int">3</parameter>
<parameter name="stepsbetweensamples" condition="int">1</parameter>
<parameter name="store_configs" condition="int">0</parameter>
<parameter name="storeconfigs" condition="int">0</parameter>
<parameter name="sub_steps" condition="int">5</parameter>
<parameter name="substeps" condition="int">5</parameter>
<parameter name="tau" condition="au">1.5000e-01</parameter>
<parameter name="time_step" condition="au">1.5000e-01</parameter>
<parameter name="timestep" condition="au">1.5000e-01</parameter>
<parameter name="use_drift" condition="string">no</parameter>
<parameter name="usedrift" condition="string">no</parameter>
<parameter name="walkers" condition="int">1</parameter>
<parameter name="warmup_steps" condition="int">0</parameter>
<parameter name="warmupsteps" condition="int">0</parameter>
  DumpConfig==false Nothing (configurations, state) will be saved.
  Walker Samples are dumped every 1 steps.
</vmc>
  EstimatorManagerBase::add replace LocalEnergy estimator.
  EstimatorManagerBase::add replace LocalEnergy estimator.
<optimization-report>
<vmc stage="main" blocks="200">
  Cannot make clones again. Use existing 1 clones
  Initial partition of walkers 0 1 
  Using Particle by Particle moves
  Walker moves without drift
  Total Sample Size   =512000
  Walker distribution on root = 0 1 
  Using Locality Approximation
===== Memory Usage after the buffer registration =====
Available memory on node 0, free + buffers : 82598 MB
Memory footprint by rank 0 on node 0       : 104 MB
==================================================
====================================================
  SimpleFixedNodeBranch::finalize after a VMC block
    QMC counter        = 18
    time step          = 0.15
    reference energy   = -36.6789
    reference variance = 0.533441
====================================================
  Execution time = 2.1642e+00
</vmc>
<opt stage="setup">
  <log>
   Reading configurations from h5FileRoot Ca.log.s018
  QMCCostFunction is created with 1 threads.
  Using Nonlocal PP in Opt: NonLocalECP
   Number of samples loaded to each thread : 500 
  VMC Eavg = -3.6662e+01
  VMC Evar = 5.0658e-01
  Total weights = 5.1200e+05
  Execution time = 4.9791e-01
  </log>
</opt>
<opt stage="main" walkers="512000">
  <log>

*****************************************
Building overlap and Hamiltonian matrices
*****************************************

Among totally 30 optimized parameters, largest LM parameter change : 3.5392e-02 at parameter 27

******************************************************************************
Init Cost =  -3.4804e+01    New Cost =  -3.4804e+01  Delta Cost =  -7.3536e-05
******************************************************************************

The new set of parameters is valid. Updating the trial wave function!

*****************************************************************************
Applying the update for shift_i =   1.0000e-02     and shift_s =   3.9062e-03
*****************************************************************************
  Execution time = 3.1456e+00
  </log>
  <optVariables href="Ca.log.s018.opt.xml">
uu_0 3.4843e-01 1 1  ON 0
uu_1 8.3605e-02 1 1  ON 1
uu_2 -3.0238e-02 1 1  ON 2
uu_3 -9.9810e-02 1 1  ON 3
uu_4 -1.3813e-01 1 1  ON 4
uu_5 -1.5878e-01 1 1  ON 5
uu_6 -1.4577e-01 1 1  ON 6
uu_7 -8.2589e-02 1 1  ON 7
uu_8 3.8287e-02 1 1  ON 8
uu_9 9.8773e-02 1 1  ON 9
ud_0 5.8574e-01 1 1  ON 10
ud_1 2.3178e-01 1 1  ON 11
ud_2 1.0528e-01 1 1  ON 12
ud_3 6.9096e-03 1 1  ON 13
ud_4 -5.2591e-02 1 1  ON 14
ud_5 -1.1580e-01 1 1  ON 15
ud_6 -1.6224e-01 1 1  ON 16
ud_7 -1.7711e-01 1 1  ON 17
ud_8 -1.4422e-01 1 1  ON 18
ud_9 -1.1161e-01 1 1  ON 19
eCa_0 -2.3233e+00 1 1  ON 20
eCa_1 -1.4321e+00 1 1  ON 21
eCa_2 -5.4521e-01 1 1  ON 22
eCa_3 1.3548e-01 1 1  ON 23
eCa_4 6.3235e-01 1 1  ON 24
eCa_5 1.0119e+00 1 1  ON 25
eCa_6 1.1825e+00 1 1  ON 26
eCa_7 9.6132e-01 1 1  ON 27
eCa_8 3.4320e-01 1 1  ON 28
eCa_9 3.4180e-02 1 1  ON 29
  </optVariables>
   Restore the number of walkers to 1, removing 0 walkers.
</opt>
</optimization-report>
  QMC Execution time = 3.1598e+00 secs
  Reusing QMCFixedSampleLinearOptimize
 Using QMCCostFunction::QMCCostFunction

=========================================================
  Start QMCFixedSampleLinearOptimize
  File Root Ca.log.s019 append = no 
=========================================================
  Skip QMCDriver::putQMCInfo 
  Resetting Properties of the walkers 1 x 13

=========================================================
  Start VMC
  File Root Ca.log.s019 append = no 
=========================================================
Using existing walkers 
  Resetting Properties of the walkers 1 x 13

<vmc function="put">
  qmc_counter=8  my_counter=18
  time step      = 1.5000e-01
  blocks         = 200
  steps          = 3
  substeps       = 5
  current        = 0
  target samples = 5.1200e+05
  walkers/mpi    = 1

  stepsbetweensamples = 1
<parameter name="blocks" condition="int">200</parameter>
<parameter name="blocks_between_recompute" condition="int">0</parameter>
<parameter name="check_properties" condition="int">100</parameter>
<parameter name="checkproperties" condition="int">100</parameter>
<parameter name="current" condition="int">0</parameter>
<parameter name="dmcwalkersperthread" condition="real">5.0000e+02</parameter>
<parameter name="maxcpusecs" condition="real">3.6000e+05</parameter>
<parameter name="record_configs" condition="int">0</parameter>
<parameter name="record_walkers" condition="int">1</parameter>
<parameter name="recordconfigs" condition="int">0</parameter>
<parameter name="recordwalkers" condition="int">1</parameter>
<parameter name="rewind" condition="int">0</parameter>
<parameter name="samples" condition="real">5.1200e+05</parameter>
<parameter name="samplesperthread" condition="real">5.0000e+02</parameter>
<parameter name="steps" condition="int">3</parameter>
<parameter name="stepsbetweensamples" condition="int">1</parameter>
<parameter name="store_configs" condition="int">0</parameter>
<parameter name="storeconfigs" condition="int">0</parameter>
<parameter name="sub_steps" condition="int">5</parameter>
<parameter name="substeps" condition="int">5</parameter>
<parameter name="tau" condition="au">1.5000e-01</parameter>
<parameter name="time_step" condition="au">1.5000e-01</parameter>
<parameter name="timestep" condition="au">1.5000e-01</parameter>
<parameter name="use_drift" condition="string">no</parameter>
<parameter name="usedrift" condition="string">no</parameter>
<parameter name="walkers" condition="int">1</parameter>
<parameter name="warmup_steps" condition="int">0</parameter>
<parameter name="warmupsteps" condition="int">0</parameter>
  DumpConfig==false Nothing (configurations, state) will be saved.
  Walker Samples are dumped every 1 steps.
</vmc>
  EstimatorManagerBase::add replace LocalEnergy estimator.
  EstimatorManagerBase::add replace LocalEnergy estimator.
<optimization-report>
<vmc stage="main" blocks="200">
  Cannot make clones again. Use existing 1 clones
  Initial partition of walkers 0 1 
  Using Particle by Particle moves
  Walker moves without drift
  Total Sample Size   =512000
  Walker distribution on root = 0 1 
  Using Locality Approximation
===== Memory Usage after the buffer registration =====
Available memory on node 0, free + buffers : 82595 MB
Memory footprint by rank 0 on node 0       : 106 MB
==================================================
====================================================
  SimpleFixedNodeBranch::finalize after a VMC block
    QMC counter        = 19
    time step          = 0.15
    reference energy   = -36.681
    reference variance = 0.408833
====================================================
  Execution time = 2.0203e+00
</vmc>
<opt stage="setup">
  <log>
   Reading configurations from h5FileRoot Ca.log.s019
  QMCCostFunction is created with 1 threads.
  Using Nonlocal PP in Opt: NonLocalECP
   Number of samples loaded to each thread : 500 
  VMC Eavg = -3.6661e+01
  VMC Evar = 5.0977e-01
  Total weights = 5.1200e+05
  Execution time = 4.9035e-01
  </log>
</opt>
<opt stage="main" walkers="512000">
  <log>

*****************************************
Building overlap and Hamiltonian matrices
*****************************************

Among totally 30 optimized parameters, largest LM parameter change : 3.3169e-02 at parameter 27

******************************************************************************
Init Cost =  -3.4802e+01    New Cost =  -3.4803e+01  Delta Cost =  -7.9834e-05
******************************************************************************

The new set of parameters is valid. Updating the trial wave function!

*****************************************************************************
Applying the update for shift_i =   1.0000e-02     and shift_s =   3.9062e-03
*****************************************************************************
  Execution time = 2.9861e+00
  </log>
  <optVariables href="Ca.log.s019.opt.xml">
uu_0 3.4922e-01 1 1  ON 0
uu_1 8.4465e-02 1 1  ON 1
uu_2 -3.0057e-02 1 1  ON 2
uu_3 -9.9649e-02 1 1  ON 3
uu_4 -1.3666e-01 1 1  ON 4
uu_5 -1.5868e-01 1 1  ON 5
uu_6 -1.5283e-01 1 1  ON 6
uu_7 -9.1098e-02 1 1  ON 7
uu_8 3.5656e-02 1 1  ON 8
uu_9 1.0395e-01 1 1  ON 9
ud_0 5.8631e-01 1 1  ON 10
ud_1 2.3313e-01 1 1  ON 11
ud_2 1.0586e-01 1 1  ON 12
ud_3 6.8064e-03 1 1  ON 13
ud_4 -5.3079e-02 1 1  ON 14
ud_5 -1.1597e-01 1 1  ON 15
ud_6 -1.6167e-01 1 1  ON 16
ud_7 -1.7274e-01 1 1  ON 17
ud_8 -1.4686e-01 1 1  ON 18
ud_9 -1.1235e-01 1 1  ON 19
eCa_0 -2.3404e+00 1 1  ON 20
eCa_1 -1.4462e+00 1 1  ON 21
eCa_2 -5.5715e-01 1 1  ON 22
eCa_3 1.2143e-01 1 1  ON 23
eCa_4 6.2171e-01 1 1  ON 24
eCa_5 1.0091e+00 1 1  ON 25
eCa_6 1.1902e+00 1 1  ON 26
eCa_7 9.9449e-01 1 1  ON 27
eCa_8 3.6656e-01 1 1  ON 28
eCa_9 3.9561e-02 1 1  ON 29
  </optVariables>
   Restore the number of walkers to 1, removing 0 walkers.
</opt>
</optimization-report>
  QMC Execution time = 2.9963e+00 secs
  Reusing QMCFixedSampleLinearOptimize
 Using QMCCostFunction::QMCCostFunction

=========================================================
  Start QMCFixedSampleLinearOptimize
  File Root Ca.log.s020 append = no 
=========================================================
  Skip QMCDriver::putQMCInfo 
  Resetting Properties of the walkers 1 x 13

=========================================================
  Start VMC
  File Root Ca.log.s020 append = no 
=========================================================
Using existing walkers 
  Resetting Properties of the walkers 1 x 13

<vmc function="put">
  qmc_counter=9  my_counter=19
  time step      = 1.5000e-01
  blocks         = 200
  steps          = 3
  substeps       = 5
  current        = 0
  target samples = 5.1200e+05
  walkers/mpi    = 1

  stepsbetweensamples = 1
<parameter name="blocks" condition="int">200</parameter>
<parameter name="blocks_between_recompute" condition="int">0</parameter>
<parameter name="check_properties" condition="int">100</parameter>
<parameter name="checkproperties" condition="int">100</parameter>
<parameter name="current" condition="int">0</parameter>
<parameter name="dmcwalkersperthread" condition="real">5.0000e+02</parameter>
<parameter name="maxcpusecs" condition="real">3.6000e+05</parameter>
<parameter name="record_configs" condition="int">0</parameter>
<parameter name="record_walkers" condition="int">1</parameter>
<parameter name="recordconfigs" condition="int">0</parameter>
<parameter name="recordwalkers" condition="int">1</parameter>
<parameter name="rewind" condition="int">0</parameter>
<parameter name="samples" condition="real">5.1200e+05</parameter>
<parameter name="samplesperthread" condition="real">5.0000e+02</parameter>
<parameter name="steps" condition="int">3</parameter>
<parameter name="stepsbetweensamples" condition="int">1</parameter>
<parameter name="store_configs" condition="int">0</parameter>
<parameter name="storeconfigs" condition="int">0</parameter>
<parameter name="sub_steps" condition="int">5</parameter>
<parameter name="substeps" condition="int">5</parameter>
<parameter name="tau" condition="au">1.5000e-01</parameter>
<parameter name="time_step" condition="au">1.5000e-01</parameter>
<parameter name="timestep" condition="au">1.5000e-01</parameter>
<parameter name="use_drift" condition="string">no</parameter>
<parameter name="usedrift" condition="string">no</parameter>
<parameter name="walkers" condition="int">1</parameter>
<parameter name="warmup_steps" condition="int">0</parameter>
<parameter name="warmupsteps" condition="int">0</parameter>
  DumpConfig==false Nothing (configurations, state) will be saved.
  Walker Samples are dumped every 1 steps.
</vmc>
  EstimatorManagerBase::add replace LocalEnergy estimator.
  EstimatorManagerBase::add replace LocalEnergy estimator.
<optimization-report>
<vmc stage="main" blocks="200">
  Cannot make clones again. Use existing 1 clones
  Initial partition of walkers 0 1 
  Using Particle by Particle moves
  Walker moves without drift
  Total Sample Size   =512000
  Walker distribution on root = 0 1 
  Using Locality Approximation
===== Memory Usage after the buffer registration =====
Available memory on node 0, free + buffers : 82593 MB
Memory footprint by rank 0 on node 0       : 108 MB
==================================================
====================================================
  SimpleFixedNodeBranch::finalize after a VMC block
    QMC counter        = 20
    time step          = 0.15
    reference energy   = -36.6397
    reference variance = 0.614009
====================================================
  Execution time = 2.0876e+00
</vmc>
<opt stage="setup">
  <log>
   Reading configurations from h5FileRoot Ca.log.s020
  QMCCostFunction is created with 1 threads.
  Using Nonlocal PP in Opt: NonLocalECP
   Number of samples loaded to each thread : 500 
  VMC Eavg = -3.6663e+01
  VMC Evar = 5.0416e-01
  Total weights = 5.1200e+05
  Execution time = 4.9637e-01
  </log>
</opt>
<opt stage="main" walkers="512000">
  <log>

*****************************************
Building overlap and Hamiltonian matrices
*****************************************

Among totally 30 optimized parameters, largest LM parameter change : 2.5694e-02 at parameter 28

******************************************************************************
Init Cost =  -3.4804e+01    New Cost =  -3.4804e+01  Delta Cost =  -7.2580e-05
******************************************************************************

The new set of parameters is valid. Updating the trial wave function!

*****************************************************************************
Applying the update for shift_i =   1.0000e-02     and shift_s =   3.9062e-03
*****************************************************************************
  Execution time = 3.0665e+00
  </log>
  <optVariables href="Ca.log.s020.opt.xml">
uu_0 3.4799e-01 1 1  ON 0
uu_1 8.4441e-02 1 1  ON 1
uu_2 -3.0059e-02 1 1  ON 2
uu_3 -9.8223e-02 1 1  ON 3
uu_4 -1.3736e-01 1 1  ON 4
uu_5 -1.5855e-01 1 1  ON 5
uu_6 -1.5250e-01 1 1  ON 6
uu_7 -9.7604e-02 1 1  ON 7
uu_8 3.3221e-02 1 1  ON 8
uu_9 1.0514e-01 1 1  ON 9
ud_0 5.9189e-01 1 1  ON 10
ud_1 2.3783e-01 1 1  ON 11
ud_2 1.1103e-01 1 1  ON 12
ud_3 1.1908e-02 1 1  ON 13
ud_4 -4.9932e-02 1 1  ON 14
ud_5 -1.1545e-01 1 1  ON 15
ud_6 -1.6573e-01 1 1  ON 16
ud_7 -1.8840e-01 1 1  ON 17
ud_8 -1.4953e-01 1 1  ON 18
ud_9 -1.0762e-01 1 1  ON 19
eCa_0 -2.3534e+00 1 1  ON 20
eCa_1 -1.4612e+00 1 1  ON 21
eCa_2 -5.7059e-01 1 1  ON 22
eCa_3 1.1058e-01 1 1  ON 23
eCa_4 6.1280e-01 1 1  ON 24
eCa_5 1.0075e+00 1 1  ON 25
eCa_6 1.1972e+00 1 1  ON 26
eCa_7 1.0200e+00 1 1  ON 27
eCa_8 3.9226e-01 1 1  ON 28
eCa_9 4.3953e-02 1 1  ON 29
  </optVariables>
   Restore the number of walkers to 1, removing 0 walkers.
</opt>
</optimization-report>
  QMC Execution time = 3.1405e+00 secs
  Total Execution time = 6.9392e+01 secs

=========================================================
  A new xml input file : Ca.log.s020.cont.xml
TACC:  Shutdown complete. Exiting. 
