
 Primary working directories    : /global/cscratch1/sd/aannabe
 Secondary working directories  : /global/cscratch1/sd/aannabe
 Wavefunction directory         : /global/homes/a/aannabe/wfu/
 Main file repository           : /global/cscratch1/sd/aannabe/

 SHA1      : 2873118e99aab1bc19f5b6fc1784693c06d15c95
 NAME      : 2015.1.8
 ARCHNAME  : linux/x86_64
 FC        : /opt/cray/pe/craype/2.5.5/bin/ftn
 BLASLIB   : -Wl,-_start-group /opt/intel/compilers_and_libraries_2016.3.210/linux/mkl/lib/intel64/libmkl_intel_ilp64.a /opt/intel/compilers_and_libraries_2016.3.210/linux/mkl/lib/intel64/libmkl_intel_thread.a /opt/intel/compilers_and_libraries_2016.3.210/linux/mkl/lib/intel64/libmkl_core.a -Wl,-_end-group
 id        : lbl

 Nodes     nprocs
 nid00487     1

 Using customized tuning parameters: mindgm=8; mindgv=16; mindgc=4; mindgr=1; noblas=0; minvec=7
 default implementation of scratch files=df  

 ***,N
 memory,512,m
 gthresh,twoint=1.e-12
 
 gprint,basis,orbitals
 gexpec,ekin,pot
 
 angstrom
 geometry={
 1                                                                               ! Number of atoms
 N 0.0 0.0 0.0
 }
 
 basis={
 Including file /global/homes/a/aannabe/docs/totals_bfd/pps/N.pp
 Including file /global/homes/a/aannabe/docs/totals_bfd/basis/aug-cc-pVnZ/N_dz.basis
 }
 
 {hf
 wf,5,8,3
 occ,1,1,1,0,1,0,0,0
                                                                                 !open,1.3
 closed,1,0,0,0,0,0,0,0
                                                                                 !sym,
 }
 scf(i)=energy
 
 _CC_NORM_MAX=2.0
 {uccsd(t)
 maxit,100
 core
 }
 posthf(i)=energy
 
 table,scf,posthf,ekin,pot
 save,2.csv,new
 
 

 Variables initialized (889), CPU time= 0.01 sec
 Commands  initialized (702), CPU time= 0.01 sec, 572 directives.
 Default parameters read. Elapsed time= 0.19 sec

 Checking input...
 Passed
1


                                         ***  PROGRAM SYSTEM MOLPRO  ***
                                       Copyright, TTI GmbH Stuttgart, 2015
                                    Version 2015.1 linked Sep  7 2016 23:09:38


 **********************************************************************************************************************************
 LABEL *   N                                                                             
  64 bit serial version                                                                  DATE: 20-Jun-18          TIME: 01:17:36  
 **********************************************************************************************************************************

 SHA1:             2873118e99aab1bc19f5b6fc1784693c06d15c95
 **********************************************************************************************************************************

 THRESHOLDS:

 ZERO    =  1.00D-12  ONEINT  =  1.00D-12  TWOINT  =  1.00D-12  PREFAC  =  1.00D-14  LOCALI  =  1.00D-09  EORDER  =  1.00D-04
 ENERGY  =  0.00D+00  ETEST   =  0.00D+00  EDENS   =  0.00D+00  THRDEDEF=  1.00D-06  GRADIENT=  1.00D-02  STEP    =  1.00D-03
 ORBITAL =  1.00D-05  CIVEC   =  1.00D-05  COEFF   =  1.00D-04  PRINTCI =  5.00D-02  PUNCHCI =  9.90D+01  OPTGRAD =  3.00D-04
 OPTENERG=  1.00D-06  OPTSTEP =  3.00D-04  THRGRAD =  1.00D-10  COMPRESS=  1.00D-11  VARMIN  =  1.00D-07  VARMAX  =  1.00D-03
 THRDOUB =  0.00D+00  THRDIV  =  1.00D-05  THRRED  =  1.00D-07  THRPSP  =  1.00D+00  THRDC   =  1.00D-10  THRCS   =  1.00D-10
 THRNRM  =  1.00D-08  THREQ   =  0.00D+00  THRDE   =  1.00D+00  THRREF  =  1.00D-05  SPARFAC =  1.00D+00  THRDLP  =  1.00D-07
 THRDIA  =  1.00D-10  THRDLS  =  1.00D-07  THRGPS  =  0.00D+00  THRKEX  =  0.00D+00  THRDIS  =  2.00D-01  THRVAR  =  1.00D-10
 THRLOC  =  1.00D-06  THRGAP  =  1.00D-06  THRLOCT = -1.00D+00  THRGAPT = -1.00D+00  THRORB  =  1.00D-06  THRMLTP =  0.00D+00
 THRCPQCI=  1.00D-10  KEXTA   =  0.00D+00  THRCOARS=  0.00D+00  SYMTOL  =  1.00D-06  GRADTOL =  1.00D-06  THROVL  =  1.00D-08
 THRORTH =  1.00D-08  GRID    =  1.00D-06  GRIDMAX =  1.00D-03  DTMAX   =  0.00D+00  THROCCDE=  1.00D-01  THROCCDE=  1.00D-01



 ZUNIT=ANG
 

Geometry recognized as XYZ


 Variable memory set to  512000000 words,  buffer space   230000 words

 SETTING BASIS          =    USERDEF


 Recomputing integrals since basis changed


 Using spherical harmonics



 PROGRAM * SEWARD (Integral evaluation for generally contracted gaussian basis sets)     Author: Roland Lindh, 1990

 Geometry written to block  1 of record 700

 Orientation using atomic masses  
 Molecule type: Atom
 Symmetry elements: X,Y,Z
 Rotational constants:       0.0000000      0.0000000      0.0000000 GHz  (calculated with average atomic masses)

 Point group  D2h 



 ATOMIC COORDINATES

 NR  ATOM    CHARGE       X              Y              Z

   1  N       5.00    0.000000000    0.000000000    0.000000000


          N   CORE POTENTIAL

          p POTENTIAL

 POWERS             1              3              2
 EXPONENTIALS   9.235010       7.668300       7.344861    
 COEFFICIENTS   5.000000       46.17505      -30.18894    

          s - p POTENTIAL

 POWERS             2
 EXPONENTIALS   6.995365    
 COEFFICIENTS   31.69720    


 BASIS DATA

   Nr Sym  Nuc  Type         Exponents   Contraction coefficients

    1.1 Ag    1  1s           0.098869     0.067266
                              0.211443     0.334290
                              0.452197     0.454257
                              0.967080     0.267861
                              2.068221     0.000248
                              4.423150    -0.132606
                              9.459462     0.014437
                             20.230246     0.000359
                             43.264919    -0.000094
    2.1 Ag    1  1s           0.070049     1.000000
    3.1 Ag    1  1s           0.175123     1.000000
    4.1 Ag    1  3d0          0.332823     1.000000
    5.1 Ag    1  3d2+         0.332823     1.000000
    6.1 Ag    1  3d0          0.832058     1.000000
    7.1 Ag    1  3d2+         0.832058     1.000000
    1.2 B3u   1  2px          0.073234     0.035758
                              0.145867     0.153945
                              0.290535     0.277656
                              0.578683     0.297676
                              1.152612     0.234403
                              2.295756     0.140321
                              4.572652     0.067219
                              9.107739     0.031594
                             18.140657     0.003301
    2.2 B3u   1  2px          0.089217     1.000000
    3.2 B3u   1  2px          0.223042     1.000000
    1.3 B2u   1  2py          0.073234     0.035758
                              0.145867     0.153945
                              0.290535     0.277656
                              0.578683     0.297676
                              1.152612     0.234403
                              2.295756     0.140321
                              4.572652     0.067219
                              9.107739     0.031594
                             18.140657     0.003301
    2.3 B2u   1  2py          0.089217     1.000000
    3.3 B2u   1  2py          0.223042     1.000000
    1.4 B1g   1  3d2-         0.332823     1.000000
    2.4 B1g   1  3d2-         0.832058     1.000000
    1.5 B1u   1  2pz          0.073234     0.035758
                              0.145867     0.153945
                              0.290535     0.277656
                              0.578683     0.297676
                              1.152612     0.234403
                              2.295756     0.140321
                              4.572652     0.067219
                              9.107739     0.031594
                             18.140657     0.003301
    2.5 B1u   1  2pz          0.089217     1.000000
    3.5 B1u   1  2pz          0.223042     1.000000
    1.6 B2g   1  3d1+         0.332823     1.000000
    2.6 B2g   1  3d1+         0.832058     1.000000
    1.7 B3g   1  3d1-         0.332823     1.000000
    2.7 B3g   1  3d1-         0.832058     1.000000

 NUCLEAR CHARGE:                    5
 NUMBER OF PRIMITIVE AOS:          56
 NUMBER OF SYMMETRY AOS:           54
 NUMBER OF CONTRACTIONS:           22   (   7Ag  +   3B3u +   3B2u +   2B1g +   3B1u +   2B2g +   2B3g +   0Au  )
 NUMBER OF CORE ORBITALS:           0   (   0Ag  +   0B3u +   0B2u +   0B1g +   0B1u +   0B2g +   0B3g +   0Au  )
 NUMBER OF VALENCE ORBITALS:        4   (   1Ag  +   1B3u +   1B2u +   0B1g +   1B1u +   0B2g +   0B3g +   0Au  )


 NUCLEAR REPULSION ENERGY    0.00000000

 EXTRA SYMMETRY OF AOS IN SYMMETRY 1:   1 1 1 2 3 2 3

 Eigenvalues of metric

         1 0.327E-01 0.299E+00 0.299E+00 0.333E+00 0.170E+01 0.170E+01 0.263E+01
         2 0.106E+00 0.465E+00 0.243E+01
         3 0.106E+00 0.465E+00 0.243E+01
         4 0.299E+00 0.170E+01
         5 0.106E+00 0.465E+00 0.243E+01
         6 0.299E+00 0.170E+01
         7 0.299E+00 0.170E+01


 Contracted 2-electron integrals neglected if value below      1.0D-12
 AO integral compression algorithm  1   Integral accuracy      1.0D-12

     0.262 MB (compressed) written to integral file (100.0%)


 NUMBER OF SORTED TWO-ELECTRON INTEGRALS:       5272.     BUFFER LENGTH:  32768
 NUMBER OF SEGMENTS:   1  SEGMENT LENGTH:       5272      RECORD LENGTH: 524288

 Memory used in sort:       0.56 MW

 SORT1 READ       12220. AND WROTE        4734. INTEGRALS IN      1 RECORDS. CPU TIME:     0.00 SEC, REAL TIME:     0.02 SEC
 SORT2 READ        4734. AND WROTE        5272. INTEGRALS IN      1 RECORDS. CPU TIME:     0.00 SEC, REAL TIME:     0.01 SEC

 FILE SIZES:   FILE 1:    19.3 MBYTE,  FILE 4:     4.2 MBYTE,   TOTAL:     23.6 MBYTE

 OPERATOR DM      FOR CENTER  0  COORDINATES:    0.000000    0.000000    0.000000
 OPERATOR EKIN    FOR CENTER  0  COORDINATES:    0.000000    0.000000    0.000000
 OPERATOR POT     FOR CENTER  0  COORDINATES:    0.000000    0.000000    0.000000


 **********************************************************************************************************************************
 DATASETS  * FILE   NREC   LENGTH (MB)   RECORD NAMES
              1      20       19.12       500      610      700      900      950      970     1000      129      960     1100   
                                          VAR    BASINP    GEOM    SYMINP    ZMAT    AOBASIS   BASIS     P2S    ABASIS      S 
                                         1400     1410     1420     1200     1210     1080     1600     1650     1300     1700   
                                         EKIN       V       ECP      H0       H01     AOSYM     SMH    MOLCAS    ERIS     OPER   

 PROGRAMS   *        TOTAL       INT
 CPU TIMES  *         0.42      0.28
 REAL TIME  *         1.69 SEC
 DISK USED  *        23.83 MB      
 **********************************************************************************************************************************


 PROGRAM * RHF-SCF (OPEN SHELL)       Authors: W. Meyer, H.-J. Werner


 NUMBER OF ELECTRONS:       4+    1-    SPACE SYMMETRY=8    SPIN SYMMETRY: Quartet 
 CONVERGENCE THRESHOLDS:    1.00E-05 (Density)    1.00E-07 (Energy)
 MAX. NUMBER OF ITERATIONS:       60
 INTERPOLATION TYPE:            DIIS
 INTERPOLATION STEPS:              2 (START)      1 (STEP)
 LEVEL SHIFTS:                 -0.60 (CLOSED) -0.30 (OPEN) 

 Number of closed-shell orbitals:    1 (   1   0   0   0   0   0   0 )
 Number of open-shell orbitals:      3 (   0   1   1   0   1   0   0 )



   Atom=N  basis=ECP2MWB_GUESS     lmin=0  lmax=1

 Orbital guess generated from atomic densities. Full valence occupancy:    1   1   1   0   1   0   0   0


 Molecular orbital dump at record        2100.2

 ITERATION    DDIFF          GRAD             ENERGY        2-EL.EN.            DIPOLE MOMENTS         DIIS   ORB.
    1      0.000D+00      0.000D+00        -9.62521387     11.271094    0.00000    0.00000    0.00000    0    start
    2      0.000D+00      0.345D-01        -9.66479613     11.976835    0.00000    0.00000    0.00000    1    diag,B
    3      0.562D-01      0.743D-02        -9.66778649     12.113001    0.00000    0.00000    0.00000    2    diag,B
    4      0.126D-01      0.357D-02        -9.66837258     12.153651    0.00000    0.00000    0.00000    3    diag,B
    5      0.136D-01      0.343D-03        -9.66837616     12.149587    0.00000    0.00000    0.00000    4    diag,B
    6      0.787D-03      0.491D-04        -9.66837629     12.150417    0.00000    0.00000    0.00000    5    diag,B
    7      0.880D-04      0.146D-04        -9.66837630     12.150540    0.00000    0.00000    0.00000    6    fixocc
    8      0.460D-04      0.597D-06        -9.66837630     12.150527    0.00000    0.00000    0.00000    7    diag,B
    9      0.106D-05      0.494D-07        -9.66837630     12.150526    0.00000    0.00000    0.00000    0    orth

 Final alpha occupancy:   1   1   1   0   1   0   0
 Final beta  occupancy:   1   0   0   0   0   0   0

 !RHF STATE 1.8 Energy                 -9.668376296315
 Nuclear energy                         0.00000000
 One-electron energy                  -15.74363939
 Two-electron energy                    6.07526310
 Virial quotient                       -1.43196105
 !RHF STATE 1.8 Dipole moment           0.00000000     0.00000000     0.00000000
 Dipole moment /Debye                   0.00000000     0.00000000     0.00000000
 

 !RHF expec          <1.8|EKIN|1.8>     6.751843065665
 
 !RHF expec           <1.8|POT|1.8>    -4.748767654598

 ELECTRON ORBITALS
 =================


   Orb  Occ    Energy  Couls-En    Coefficients

                                   1 1s      1 1s      1 1s      1 3d0     1 3d2+    1 3d0     1 3d2+ 

   1.1   2    -0.9454   -4.3761  1.000020  0.000035 -0.000047  0.000000  0.000000 -0.000000 -0.000000

                                   1 2px     1 2px     1 2px  

   1.2   +    -0.5675   -3.5282  0.999992 -0.000030  0.000030

                                   1 2py     1 2py     1 2py  

   1.3   +    -0.5675   -3.5282  0.999992 -0.000030  0.000030

                                   1 2pz     1 2pz     1 2pz  

   1.5   +    -0.5675   -3.5282  0.999992 -0.000030  0.000030

 HOMO      1.2    -0.567461 =     -15.4414eV
 LUMO      2.1     0.141822 =       3.8592eV
 LUMO-HOMO         0.709283 =      19.3006eV


 **********************************************************************************************************************************
 DATASETS  * FILE   NREC   LENGTH (MB)   RECORD NAMES
              1      20       19.12       500      610      700      900      950      970     1000      129      960     1100   
                                          VAR    BASINP    GEOM    SYMINP    ZMAT    AOBASIS   BASIS     P2S    ABASIS      S 
                                         1400     1410     1420     1200     1210     1080     1600     1650     1300     1700   
                                         EKIN       V       ECP      H0       H01     AOSYM     SMH    MOLCAS    ERIS     OPER   

              2       4        2.75       700     1000      520     2100   
                                         GEOM     BASIS   MCVARS     RHF  

 PROGRAMS   *        TOTAL        HF       INT
 CPU TIMES  *         0.47      0.05      0.28
 REAL TIME  *         1.97 SEC
 DISK USED  *        23.83 MB      
 **********************************************************************************************************************************
 SETTING SCF(I)         =        -9.66837630  AU                              
 SETTING _CC_NORM_MAX   =         2.00000000                                  


 PROGRAM * CCSD (Unrestricted open-shell coupled cluster)     Authors: C. Hampel, H.-J. Werner, 1991, M. Deegan, P.J. Knowles, 1992


 Convergence thresholds:  THRVAR = 1.00D-08  THRDEN = 1.00D-06

 CCSD(T)     terms to be evaluated (factor= 1.000)


 Number of closed-shell orbitals:   1 (   1   0   0   0   0   0   0 )
 Number of active  orbitals:        3 (   0   1   1   0   1   0   0 )
 Number of external orbitals:      18 (   6   2   2   2   2   2   2 )

 Memory could be reduced to 0.30 Mwords without degradation in triples

 Number of N-1 electron functions:               5
 Number of N-2 electron functions:              10
 Number of singly external CSFs:                21
 Number of doubly external CSFs:               420
 Total number of CSFs:                         441

 Molecular orbitals read from record     2100.2  Type=RHF/CANONICAL (state 1.8)

 Integral transformation finished. Total CPU:   0.00 sec, npass=  1  Memory used:   0.07 MW

 Starting RMP2 calculation

 ITER.      SQ.NORM     CORR.ENERGY   TOTAL ENERGY   ENERGY CHANGE        DEN1      VAR(S)    VAR(P)  DIIS     TIME
   1      1.02456102    -0.07829213    -9.74666843    -0.07829213    -0.00029127  0.13D-04  0.89D-04  1  1     0.01
   2      1.02482763    -0.07861096    -9.74698726    -0.00031883    -0.00000059  0.25D-07  0.20D-06  2  2     0.01
   3      1.02483504    -0.07861690    -9.74699320    -0.00000594    -0.00000000  0.50D-10  0.25D-09  3  3     0.01
   4      1.02483511    -0.07861693    -9.74699322    -0.00000003    -0.00000000  0.30D-12  0.15D-11  4  4     0.01

 Norm of t1 vector:      0.04336112      S-energy:    -0.00271428      T1 diagnostic:  0.00189700
 Norm of t2 vector:      0.15150881      P-energy:    -0.07590265
                                         Alpha-Beta:  -0.05404586
                                         Alpha-Alpha: -0.02185678
                                         Beta-Beta:    0.00000000

 Spin contamination <S**2-Sz**2-Sz>     0.01851683
  Reference energy                     -9.668376296315
  RHF-RMP2 correlation energy          -0.078616927314
 !RHF-RMP2 energy                      -9.746993223629

 Starting UCCSD calculation

 ITER.      SQ.NORM     CORR.ENERGY   TOTAL ENERGY   ENERGY CHANGE        DEN1      VAR(S)    VAR(P)  DIIS     TIME
   1      1.03471089    -0.09194779    -9.76032409    -0.09194779    -0.00435075  0.19D-03  0.13D-02  1  1     0.02
   2      1.03988165    -0.09704391    -9.76542021    -0.00509612    -0.00012865  0.15D-04  0.40D-04  2  2     0.02
   3      1.04084635    -0.09754740    -9.76592369    -0.00050349    -0.00000557  0.14D-05  0.17D-05  3  3     0.03
   4      1.04099860    -0.09761630    -9.76599259    -0.00006890    -0.00000057  0.74D-07  0.22D-06  4  4     0.03
   5      1.04100010    -0.09760381    -9.76598010     0.00001249    -0.00000003  0.78D-08  0.76D-08  5  5     0.03
   6      1.04100774    -0.09761175    -9.76598804    -0.00000794    -0.00000000  0.99D-09  0.49D-09  6  6     0.04
   7      1.04100470    -0.09760926    -9.76598556     0.00000249    -0.00000000  0.43D-10  0.39D-10  6  1     0.04
   8      1.04100482    -0.09760933    -9.76598562    -0.00000007    -0.00000000  0.64D-12  0.14D-11  6  4     0.04

 Norm of t1 vector:      0.05750659      S-energy:    -0.00337717      T1 diagnostic:  0.00637289
                                                                       D1 diagnostic:  0.01149994
 Norm of t2 vector:      0.19415924      P-energy:    -0.09423215
                                         Alpha-Beta:  -0.06991255
                                         Alpha-Alpha: -0.02431960
                                         Beta-Beta:    0.00000000

 Spin contamination <S**2-Sz**2-Sz>     0.00095635

 Memory could be reduced to 0.30 Mwords without degradation in triples
 

 RESULTS
 =======

  Reference energy                     -9.668376296315
  UCCSD singles energy                 -0.003377173966
  UCCSD pair energy                    -0.094232151513
  UCCSD correlation energy             -0.097609325479
  Triples (T) contribution             -0.001398914161
  Total correlation energy             -0.099008239640
 
  RHF-UCCSD energy                     -9.765985621794
  RHF-UCCSD[T] energy                  -9.767413641500
  RHF-UCCSD-T energy                   -9.767361409332
 !RHF-UCCSD(T) energy                  -9.767384535955

 Program statistics:

 Available memory in ccsd:               511999732
 Min. memory needed in ccsd:                  4174
 Max. memory used in ccsd:                    4494
 Max. memory used in cckext:                 36358 ( 8 integral passes)
 Max. memory used in cckint:                 68402 ( 1 integral passes)



 **********************************************************************************************************************************
 DATASETS  * FILE   NREC   LENGTH (MB)   RECORD NAMES
              1      20       19.12       500      610      700      900      950      970     1000      129      960     1100   
                                          VAR    BASINP    GEOM    SYMINP    ZMAT    AOBASIS   BASIS     P2S    ABASIS      S 
                                         1400     1410     1420     1200     1210     1080     1600     1650     1300     1700   
                                         EKIN       V       ECP      H0       H01     AOSYM     SMH    MOLCAS    ERIS     OPER   

              2       4        2.75       700     1000      520     2100   
                                         GEOM     BASIS   MCVARS     RHF  

 PROGRAMS   *        TOTAL  UCCSD(T)        HF       INT
 CPU TIMES  *         0.56      0.07      0.05      0.28
 REAL TIME  *         2.65 SEC
 DISK USED  *        23.83 MB      
 **********************************************************************************************************************************
 SETTING POSTHF(I)      =        -9.76738454  AU                              
                                                                                                                                                                                                                                                                

       SCF           POSTHF       EKIN          POT
    -9.66837630   -9.76738454   6.75184307   -4.74876765
                                                  

 UCCSD(T)/USERDEF energy=     -9.767384535955

        UCCSD(T)        HF-SCF  
     -9.76738454     -9.66837630
 **********************************************************************************************************************************
 Variable memory released
