
 Primary working directories    : /global/cscratch1/sd/aannabe
 Secondary working directories  : /global/cscratch1/sd/aannabe
 Wavefunction directory         : /global/homes/a/aannabe/wfu/
 Main file repository           : /global/cscratch1/sd/aannabe/

 SHA1      : 2873118e99aab1bc19f5b6fc1784693c06d15c95
 NAME      : 2015.1.8
 ARCHNAME  : linux/x86_64
 FC        : /opt/cray/pe/craype/2.5.5/bin/ftn
 BLASLIB   : -Wl,-_start-group /opt/intel/compilers_and_libraries_2016.3.210/linux/mkl/lib/intel64/libmkl_intel_ilp64.a /opt/intel/compilers_and_libraries_2016.3.210/linux/mkl/lib/intel64/libmkl_intel_thread.a /opt/intel/compilers_and_libraries_2016.3.210/linux/mkl/lib/intel64/libmkl_core.a -Wl,-_end-group
 id        : lbl

 Nodes     nprocs
 nid00487     1

 Using customized tuning parameters: mindgm=8; mindgv=16; mindgc=4; mindgr=1; noblas=0; minvec=7
 default implementation of scratch files=df  

 ***,N
 memory,512,m
 gthresh,twoint=1.e-12
 
 gprint,basis,orbitals
 gexpec,ekin,pot
 
 angstrom
 geometry={
 1                                                                               ! Number of atoms
 N 0.0 0.0 0.0
 }
 
 basis={
 Including file /global/homes/a/aannabe/docs/totals_bfd/pps/N.pp
 Including file /global/homes/a/aannabe/docs/totals_bfd/basis/aug-cc-pVnZ/N_qz.basis
 }
 
 {hf
 wf,5,8,3
 occ,1,1,1,0,1,0,0,0
                                                                                 !open,1.3
 closed,1,0,0,0,0,0,0,0
                                                                                 !sym,
 }
 scf(i)=energy
 
 _CC_NORM_MAX=2.0
 {uccsd(t)
 maxit,100
 core
 }
 posthf(i)=energy
 
 table,scf,posthf,ekin,pot
 save,4.csv,new
 
 

 Variables initialized (889), CPU time= 0.01 sec
 Commands  initialized (702), CPU time= 0.01 sec, 572 directives.
 Default parameters read. Elapsed time= 0.15 sec

 Checking input...
 Passed
1


                                         ***  PROGRAM SYSTEM MOLPRO  ***
                                       Copyright, TTI GmbH Stuttgart, 2015
                                    Version 2015.1 linked Sep  7 2016 23:09:38


 **********************************************************************************************************************************
 LABEL *   N                                                                             
  64 bit serial version                                                                  DATE: 20-Jun-18          TIME: 01:17:49  
 **********************************************************************************************************************************

 SHA1:             2873118e99aab1bc19f5b6fc1784693c06d15c95
 **********************************************************************************************************************************

 THRESHOLDS:

 ZERO    =  1.00D-12  ONEINT  =  1.00D-12  TWOINT  =  1.00D-12  PREFAC  =  1.00D-14  LOCALI  =  1.00D-09  EORDER  =  1.00D-04
 ENERGY  =  0.00D+00  ETEST   =  0.00D+00  EDENS   =  0.00D+00  THRDEDEF=  1.00D-06  GRADIENT=  1.00D-02  STEP    =  1.00D-03
 ORBITAL =  1.00D-05  CIVEC   =  1.00D-05  COEFF   =  1.00D-04  PRINTCI =  5.00D-02  PUNCHCI =  9.90D+01  OPTGRAD =  3.00D-04
 OPTENERG=  1.00D-06  OPTSTEP =  3.00D-04  THRGRAD =  1.00D-10  COMPRESS=  1.00D-11  VARMIN  =  1.00D-07  VARMAX  =  1.00D-03
 THRDOUB =  0.00D+00  THRDIV  =  1.00D-05  THRRED  =  1.00D-07  THRPSP  =  1.00D+00  THRDC   =  1.00D-10  THRCS   =  1.00D-10
 THRNRM  =  1.00D-08  THREQ   =  0.00D+00  THRDE   =  1.00D+00  THRREF  =  1.00D-05  SPARFAC =  1.00D+00  THRDLP  =  1.00D-07
 THRDIA  =  1.00D-10  THRDLS  =  1.00D-07  THRGPS  =  0.00D+00  THRKEX  =  0.00D+00  THRDIS  =  2.00D-01  THRVAR  =  1.00D-10
 THRLOC  =  1.00D-06  THRGAP  =  1.00D-06  THRLOCT = -1.00D+00  THRGAPT = -1.00D+00  THRORB  =  1.00D-06  THRMLTP =  0.00D+00
 THRCPQCI=  1.00D-10  KEXTA   =  0.00D+00  THRCOARS=  0.00D+00  SYMTOL  =  1.00D-06  GRADTOL =  1.00D-06  THROVL  =  1.00D-08
 THRORTH =  1.00D-08  GRID    =  1.00D-06  GRIDMAX =  1.00D-03  DTMAX   =  0.00D+00  THROCCDE=  1.00D-01  THROCCDE=  1.00D-01



 ZUNIT=ANG
 

Geometry recognized as XYZ


 Variable memory set to  512000000 words,  buffer space   230000 words

 SETTING BASIS          =    USERDEF


 Recomputing integrals since basis changed


 Using spherical harmonics



 PROGRAM * SEWARD (Integral evaluation for generally contracted gaussian basis sets)     Author: Roland Lindh, 1990

 Geometry written to block  1 of record 700

 Orientation using atomic masses  
 Molecule type: Atom
 Symmetry elements: X,Y,Z
 Rotational constants:       0.0000000      0.0000000      0.0000000 GHz  (calculated with average atomic masses)

 Point group  D2h 



 ATOMIC COORDINATES

 NR  ATOM    CHARGE       X              Y              Z

   1  N       5.00    0.000000000    0.000000000    0.000000000


          N   CORE POTENTIAL

          p POTENTIAL

 POWERS             1              3              2
 EXPONENTIALS   9.235010       7.668300       7.344861    
 COEFFICIENTS   5.000000       46.17505      -30.18894    

          s - p POTENTIAL

 POWERS             2
 EXPONENTIALS   6.995365    
 COEFFICIENTS   31.69720    


 BASIS DATA

   Nr Sym  Nuc  Type         Exponents   Contraction coefficients

    1.1 Ag    1  1s           0.098869     0.067266
                              0.211443     0.334290
                              0.452197     0.454257
                              0.967080     0.267861
                              2.068221     0.000248
                              4.423150    -0.132606
                              9.459462     0.014437
                             20.230246     0.000359
                             43.264919    -0.000094
    2.1 Ag    1  1s           0.054306     1.000000
    3.1 Ag    1  1s           0.135764     1.000000
    4.1 Ag    1  1s           0.310826     1.000000
    5.1 Ag    1  1s           1.625001     1.000000
    6.1 Ag    1  3d0          0.138493     1.000000
    7.1 Ag    1  3d2+         0.138493     1.000000
    8.1 Ag    1  3d0          0.346233     1.000000
    9.1 Ag    1  3d2+         0.346233     1.000000
   10.1 Ag    1  3d0          1.009895     1.000000
   11.1 Ag    1  3d2+         1.009895     1.000000
   12.1 Ag    1  3d0          3.028459     1.000000
   13.1 Ag    1  3d2+         3.028459     1.000000
   14.1 Ag    1  5g0          0.543005     1.000000
   15.1 Ag    1  5g4+         0.543005     1.000000
   16.1 Ag    1  5g2+         0.543005     1.000000
   17.1 Ag    1  5g0          1.357512     1.000000
   18.1 Ag    1  5g4+         1.357512     1.000000
   19.1 Ag    1  5g2+         1.357512     1.000000
    1.2 B3u   1  2px          0.073234     0.035758
                              0.145867     0.153945
                              0.290535     0.277656
                              0.578683     0.297676
                              1.152612     0.234403
                              2.295756     0.140321
                              4.572652     0.067219
                              9.107739     0.031594
                             18.140657     0.003301
    2.2 B3u   1  2px          0.056294     1.000000
    3.2 B3u   1  2px          0.140736     1.000000
    4.2 B3u   1  2px          0.413103     1.000000
    5.2 B3u   1  2px          1.020750     1.000000
    6.2 B3u   1  4f1+         0.276452     1.000000
    7.2 B3u   1  4f3+         0.276452     1.000000
    8.2 B3u   1  4f1+         0.691129     1.000000
    9.2 B3u   1  4f3+         0.691129     1.000000
   10.2 B3u   1  4f1+         2.024747     1.000000
   11.2 B3u   1  4f3+         2.024747     1.000000
    1.3 B2u   1  2py          0.073234     0.035758
                              0.145867     0.153945
                              0.290535     0.277656
                              0.578683     0.297676
                              1.152612     0.234403
                              2.295756     0.140321
                              4.572652     0.067219
                              9.107739     0.031594
                             18.140657     0.003301
    2.3 B2u   1  2py          0.056294     1.000000
    3.3 B2u   1  2py          0.140736     1.000000
    4.3 B2u   1  2py          0.413103     1.000000
    5.3 B2u   1  2py          1.020750     1.000000
    6.3 B2u   1  4f1-         0.276452     1.000000
    7.3 B2u   1  4f3-         0.276452     1.000000
    8.3 B2u   1  4f1-         0.691129     1.000000
    9.3 B2u   1  4f3-         0.691129     1.000000
   10.3 B2u   1  4f1-         2.024747     1.000000
   11.3 B2u   1  4f3-         2.024747     1.000000
    1.4 B1g   1  3d2-         0.138493     1.000000
    2.4 B1g   1  3d2-         0.346233     1.000000
    3.4 B1g   1  3d2-         1.009895     1.000000
    4.4 B1g   1  3d2-         3.028459     1.000000
    5.4 B1g   1  5g2-         0.543005     1.000000
    6.4 B1g   1  5g4-         0.543005     1.000000
    7.4 B1g   1  5g2-         1.357512     1.000000
    8.4 B1g   1  5g4-         1.357512     1.000000
    1.5 B1u   1  2pz          0.073234     0.035758
                              0.145867     0.153945
                              0.290535     0.277656
                              0.578683     0.297676
                              1.152612     0.234403
                              2.295756     0.140321
                              4.572652     0.067219
                              9.107739     0.031594
                             18.140657     0.003301
    2.5 B1u   1  2pz          0.056294     1.000000
    3.5 B1u   1  2pz          0.140736     1.000000
    4.5 B1u   1  2pz          0.413103     1.000000
    5.5 B1u   1  2pz          1.020750     1.000000
    6.5 B1u   1  4f0          0.276452     1.000000
    7.5 B1u   1  4f2+         0.276452     1.000000
    8.5 B1u   1  4f0          0.691129     1.000000
    9.5 B1u   1  4f2+         0.691129     1.000000
   10.5 B1u   1  4f0          2.024747     1.000000
   11.5 B1u   1  4f2+         2.024747     1.000000
    1.6 B2g   1  3d1+         0.138493     1.000000
    2.6 B2g   1  3d1+         0.346233     1.000000
    3.6 B2g   1  3d1+         1.009895     1.000000
    4.6 B2g   1  3d1+         3.028459     1.000000
    5.6 B2g   1  5g1+         0.543005     1.000000
    6.6 B2g   1  5g3+         0.543005     1.000000
    7.6 B2g   1  5g1+         1.357512     1.000000
    8.6 B2g   1  5g3+         1.357512     1.000000
    1.7 B3g   1  3d1-         0.138493     1.000000
    2.7 B3g   1  3d1-         0.346233     1.000000
    3.7 B3g   1  3d1-         1.009895     1.000000
    4.7 B3g   1  3d1-         3.028459     1.000000
    5.7 B3g   1  5g1-         0.543005     1.000000
    6.7 B3g   1  5g3-         0.543005     1.000000
    7.7 B3g   1  5g1-         1.357512     1.000000
    8.7 B3g   1  5g3-         1.357512     1.000000
    1.8 Au    1  4f2-         0.276452     1.000000
    2.8 Au    1  4f2-         0.691129     1.000000
    3.8 Au    1  4f2-         2.024747     1.000000

 NUCLEAR CHARGE:                    5
 NUMBER OF PRIMITIVE AOS:         136
 NUMBER OF SYMMETRY AOS:          111
 NUMBER OF CONTRACTIONS:           79   (  19Ag  +  11B3u +  11B2u +   8B1g +  11B1u +   8B2g +   8B3g +   3Au  )
 NUMBER OF CORE ORBITALS:           0   (   0Ag  +   0B3u +   0B2u +   0B1g +   0B1u +   0B2g +   0B3g +   0Au  )
 NUMBER OF VALENCE ORBITALS:        4   (   1Ag  +   1B3u +   1B2u +   0B1g +   1B1u +   0B2g +   0B3g +   0Au  )


 NUCLEAR REPULSION ENERGY    0.00000000

 EXTRA SYMMETRY OF AOS IN SYMMETRY 1:   1 1 1 1 1 2 3 2 3 2   3 2 3 4 5 6 4 5 6
 EXTRA SYMMETRY OF AOS IN SYMMETRY 2:   1 1 1 1 1 2 3 2 3 2   3
 EXTRA SYMMETRY OF AOS IN SYMMETRY 3:   1 1 1 1 1 2 3 2 3 2   3
 EXTRA SYMMETRY OF AOS IN SYMMETRY 4:   1 1 1 1 2 3 2 3
 EXTRA SYMMETRY OF AOS IN SYMMETRY 5:   1 1 1 1 1 2 3 2 3 2   3
 EXTRA SYMMETRY OF AOS IN SYMMETRY 6:   1 1 1 1 2 3 2 3
 EXTRA SYMMETRY OF AOS IN SYMMETRY 7:   1 1 1 1 2 3 2 3

 Eigenvalues of metric

         1 0.461E-02 0.325E-01 0.126E+00 0.126E+00 0.291E+00 0.428E+00 0.428E+00 0.428E+00
         2 0.131E-01 0.619E-01 0.237E+00 0.237E+00 0.264E+00 0.858E+00 0.858E+00 0.119E+01
         3 0.131E-01 0.619E-01 0.237E+00 0.237E+00 0.264E+00 0.858E+00 0.858E+00 0.119E+01
         4 0.126E+00 0.428E+00 0.428E+00 0.436E+00 0.120E+01 0.157E+01 0.157E+01 0.223E+01
         5 0.131E-01 0.619E-01 0.237E+00 0.237E+00 0.264E+00 0.858E+00 0.858E+00 0.119E+01
         6 0.126E+00 0.428E+00 0.428E+00 0.436E+00 0.120E+01 0.157E+01 0.157E+01 0.223E+01
         7 0.126E+00 0.428E+00 0.428E+00 0.436E+00 0.120E+01 0.157E+01 0.157E+01 0.223E+01
         8 0.237E+00 0.858E+00 0.191E+01


 Contracted 2-electron integrals neglected if value below      1.0D-12
 AO integral compression algorithm  1   Integral accuracy      1.0D-12

     6.554 MB (compressed) written to integral file ( 68.4%)


 NUMBER OF SORTED TWO-ELECTRON INTEGRALS:     665704.     BUFFER LENGTH:  32768
 NUMBER OF SEGMENTS:   1  SEGMENT LENGTH:     665704      RECORD LENGTH: 524288

 Memory used in sort:       1.22 MW

 SORT1 READ     1222209. AND WROTE      500866. INTEGRALS IN      2 RECORDS. CPU TIME:     0.04 SEC, REAL TIME:     0.06 SEC
 SORT2 READ      500866. AND WROTE      665704. INTEGRALS IN     25 RECORDS. CPU TIME:     0.08 SEC, REAL TIME:     0.13 SEC

 FILE SIZES:   FILE 1:    25.8 MBYTE,  FILE 4:     8.4 MBYTE,   TOTAL:     34.2 MBYTE

 OPERATOR DM      FOR CENTER  0  COORDINATES:    0.000000    0.000000    0.000000
 OPERATOR EKIN    FOR CENTER  0  COORDINATES:    0.000000    0.000000    0.000000
 OPERATOR POT     FOR CENTER  0  COORDINATES:    0.000000    0.000000    0.000000


 **********************************************************************************************************************************
 DATASETS  * FILE   NREC   LENGTH (MB)   RECORD NAMES
              1      20       22.79       500      610      700      900      950      970     1000      129      960     1100   
                                          VAR    BASINP    GEOM    SYMINP    ZMAT    AOBASIS   BASIS     P2S    ABASIS      S 
                                         1400     1410     1420     1200     1210     1080     1600     1650     1300     1700   
                                         EKIN       V       ECP      H0       H01     AOSYM     SMH    MOLCAS    ERIS     OPER   

 PROGRAMS   *        TOTAL       INT
 CPU TIMES  *         0.83      0.69
 REAL TIME  *         2.16 SEC
 DISK USED  *        34.49 MB      
 **********************************************************************************************************************************


 PROGRAM * RHF-SCF (OPEN SHELL)       Authors: W. Meyer, H.-J. Werner


 NUMBER OF ELECTRONS:       4+    1-    SPACE SYMMETRY=8    SPIN SYMMETRY: Quartet 
 CONVERGENCE THRESHOLDS:    1.00E-05 (Density)    1.00E-07 (Energy)
 MAX. NUMBER OF ITERATIONS:       60
 INTERPOLATION TYPE:            DIIS
 INTERPOLATION STEPS:              2 (START)      1 (STEP)
 LEVEL SHIFTS:                 -0.60 (CLOSED) -0.30 (OPEN) 

 Number of closed-shell orbitals:    1 (   1   0   0   0   0   0   0   0 )
 Number of open-shell orbitals:      3 (   0   1   1   0   1   0   0   0 )



   Atom=N  basis=ECP2MWB_GUESS     lmin=0  lmax=1

 Orbital guess generated from atomic densities. Full valence occupancy:    1   1   1   0   1   0   0   0


 Molecular orbital dump at record        2100.2

 ITERATION    DDIFF          GRAD             ENERGY        2-EL.EN.            DIPOLE MOMENTS         DIIS   ORB.
    1      0.000D+00      0.000D+00        -9.62227247     11.235168    0.00000    0.00000    0.00000    0    start
    2      0.000D+00      0.190D-01        -9.66443512     11.986935    0.00000    0.00000    0.00000    1    diag,B
    3      0.183D-01      0.461D-02        -9.66749701     12.095811    0.00000    0.00000    0.00000    2    diag,B
    4      0.345D-02      0.225D-02        -9.66833648     12.146465    0.00000    0.00000    0.00000    3    diag,B
    5      0.349D-02      0.509D-03        -9.66837508     12.151320    0.00000    0.00000    0.00000    4    diag,B
    6      0.896D-03      0.110D-03        -9.66837627     12.150574    0.00000    0.00000    0.00000    5    diag,B
    7      0.206D-03      0.145D-04        -9.66837630     12.150534    0.00000    0.00000    0.00000    6    fixocc
    8      0.241D-04      0.299D-05        -9.66837630     12.150488    0.00000    0.00000    0.00000    7    diag,B
    9      0.666D-05      0.503D-06        -9.66837630     12.150487    0.00000    0.00000    0.00000    0    orth

 Final alpha occupancy:   1   1   1   0   1   0   0   0
 Final beta  occupancy:   1   0   0   0   0   0   0   0

 !RHF STATE 1.8 Energy                 -9.668376304197
 Nuclear energy                         0.00000000
 One-electron energy                  -15.74361964
 Two-electron energy                    6.07524334
 Virial quotient                       -1.43195719
 !RHF STATE 1.8 Dipole moment           0.00000000     0.00000000     0.00000000
 Dipole moment /Debye                   0.00000000     0.00000000     0.00000000
 

 !RHF expec          <1.8|EKIN|1.8>     6.751861291860
 
 !RHF expec           <1.8|POT|1.8>    -4.748768357215

 ELECTRON ORBITALS
 =================


   Orb  Occ    Energy  Couls-En    Coefficients

                                   1 1s      1 1s      1 1s      1 1s      1 1s      1 3d0     1 3d2+    1 3d0     1 3d2+    1 3d0  
                                   1 3d2+    1 3d0     1 3d2+    1 5g0     1 5g4+    1 5g2+    1 5g0     1 5g4+    1 5g2+ 

   1.1   2    -0.9454   -4.3761  0.999933  0.000120 -0.000186  0.000164 -0.000010 -0.000000  0.000000  0.000000 -0.000000  0.000000
                                -0.000000 -0.000000  0.000000  0.000000 -0.000000 -0.000000 -0.000000  0.000000  0.000000

                                   1 2px     1 2px     1 2px     1 2px     1 2px     1 4f1+    1 4f3+    1 4f1+    1 4f3+    1 4f1+ 
                                   1 4f3+ 

   1.2   +    -0.5675   -3.5282  1.000010  0.000094 -0.000084  0.000023 -0.000011 -0.000000  0.000000  0.000000 -0.000000 -0.000000
                                -0.000000

                                   1 2py     1 2py     1 2py     1 2py     1 2py     1 4f1-    1 4f3-    1 4f1-    1 4f3-    1 4f1- 
                                   1 4f3- 

   1.3   +    -0.5675   -3.5282  1.000010  0.000094 -0.000084  0.000023 -0.000011 -0.000000 -0.000000  0.000000 -0.000000 -0.000000
                                 0.000000

                                   1 2pz     1 2pz     1 2pz     1 2pz     1 2pz     1 4f0     1 4f2+    1 4f0     1 4f2+    1 4f0  
                                   1 4f2+ 

   1.5   +    -0.5675   -3.5282  1.000010  0.000094 -0.000084  0.000023 -0.000011  0.000000 -0.000000  0.000000  0.000000  0.000000
                                -0.000000

 HOMO      1.2    -0.567464 =     -15.4415eV
 LUMO      2.1     0.097721 =       2.6591eV
 LUMO-HOMO         0.665185 =      18.1006eV


 **********************************************************************************************************************************
 DATASETS  * FILE   NREC   LENGTH (MB)   RECORD NAMES
              1      20       22.79       500      610      700      900      950      970     1000      129      960     1100   
                                          VAR    BASINP    GEOM    SYMINP    ZMAT    AOBASIS   BASIS     P2S    ABASIS      S 
                                         1400     1410     1420     1200     1210     1080     1600     1650     1300     1700   
                                         EKIN       V       ECP      H0       H01     AOSYM     SMH    MOLCAS    ERIS     OPER   

              2       4        2.78       700     1000      520     2100   
                                         GEOM     BASIS   MCVARS     RHF  

 PROGRAMS   *        TOTAL        HF       INT
 CPU TIMES  *         0.94      0.11      0.69
 REAL TIME  *         2.38 SEC
 DISK USED  *        34.49 MB      
 **********************************************************************************************************************************
 SETTING SCF(I)         =        -9.66837630  AU                              
 SETTING _CC_NORM_MAX   =         2.00000000                                  


 PROGRAM * CCSD (Unrestricted open-shell coupled cluster)     Authors: C. Hampel, H.-J. Werner, 1991, M. Deegan, P.J. Knowles, 1992


 Convergence thresholds:  THRVAR = 1.00D-08  THRDEN = 1.00D-06

 CCSD(T)     terms to be evaluated (factor= 1.000)


 Number of closed-shell orbitals:   1 (   1   0   0   0   0   0   0   0 )
 Number of active  orbitals:        3 (   0   1   1   0   1   0   0   0 )
 Number of external orbitals:      75 (  18  10  10   8  10   8   8   3 )

 Memory could be reduced to 0.94 Mwords without degradation in triples

 Number of N-1 electron functions:               5
 Number of N-2 electron functions:              10
 Number of singly external CSFs:                69
 Number of doubly external CSFs:              5556
 Total number of CSFs:                        5625

 Molecular orbitals read from record     2100.2  Type=RHF/CANONICAL (state 1.8)

 Integral transformation finished. Total CPU:   0.02 sec, npass=  1  Memory used:   0.17 MW

 Starting RMP2 calculation

 ITER.      SQ.NORM     CORR.ENERGY   TOTAL ENERGY   ENERGY CHANGE        DEN1      VAR(S)    VAR(P)  DIIS     TIME
   1      1.02879497    -0.11158121    -9.77995751    -0.11158121    -0.00030614  0.13D-04  0.95D-04  1  1     0.03
   2      1.02907606    -0.11191328    -9.78028958    -0.00033207    -0.00000088  0.22D-07  0.33D-06  2  2     0.03
   3      1.02908686    -0.11192205    -9.78029836    -0.00000877    -0.00000000  0.70D-10  0.10D-08  3  3     0.03
   4      1.02908703    -0.11192215    -9.78029845    -0.00000009    -0.00000000  0.18D-12  0.42D-11  4  4     0.03

 Norm of t1 vector:      0.04434068      S-energy:    -0.00282396      T1 diagnostic:  0.00189666
 Norm of t2 vector:      0.16468436      P-energy:    -0.10909819
                                         Alpha-Beta:  -0.07847905
                                         Alpha-Alpha: -0.03061914
                                         Beta-Beta:    0.00000000

 Spin contamination <S**2-Sz**2-Sz>     0.01655844
  Reference energy                     -9.668376304197
  RHF-RMP2 correlation energy          -0.111922146613
 !RHF-RMP2 energy                      -9.780298450810

 Starting UCCSD calculation

 ITER.      SQ.NORM     CORR.ENERGY   TOTAL ENERGY   ENERGY CHANGE        DEN1      VAR(S)    VAR(P)  DIIS     TIME
   1      1.03696427    -0.12245378    -9.79083009    -0.12245378    -0.00357739  0.14D-03  0.10D-02  1  1     0.05
   2      1.04120496    -0.12654918    -9.79492548    -0.00409540    -0.00012353  0.17D-04  0.36D-04  2  2     0.06
   3      1.04205879    -0.12698282    -9.79535913    -0.00043364    -0.00000730  0.14D-05  0.21D-05  3  3     0.08
   4      1.04220737    -0.12704637    -9.79542267    -0.00006355    -0.00000090  0.22D-06  0.29D-06  4  4     0.10
   5      1.04224618    -0.12705875    -9.79543505    -0.00001238    -0.00000008  0.13D-07  0.30D-07  5  5     0.12
   6      1.04224509    -0.12705649    -9.79543279     0.00000226    -0.00000001  0.10D-08  0.23D-08  6  6     0.14
   7      1.04224511    -0.12705666    -9.79543296    -0.00000017    -0.00000000  0.21D-09  0.14D-09  6  1     0.16

 Norm of t1 vector:      0.05357736      S-energy:    -0.00330772      T1 diagnostic:  0.00450288
                                                                       D1 diagnostic:  0.00740561
 Norm of t2 vector:      0.19843027      P-energy:    -0.12374893
                                         Alpha-Beta:  -0.09072020
                                         Alpha-Alpha: -0.03302873
                                         Beta-Beta:    0.00000000

 Spin contamination <S**2-Sz**2-Sz>     0.00226267

 Memory could be reduced to 0.96 Mwords without degradation in triples
 

 RESULTS
 =======

  Reference energy                     -9.668376304197
  UCCSD singles energy                 -0.003307723401
  UCCSD pair energy                    -0.123748932555
  UCCSD correlation energy             -0.127056655956
  Triples (T) contribution             -0.003151177324
  Total correlation energy             -0.130207833280
 
  RHF-UCCSD energy                     -9.795432960152
  RHF-UCCSD[T] energy                  -9.798573940664
  RHF-UCCSD-T energy                   -9.798585772481
 !RHF-UCCSD(T) energy                  -9.798584137476

 Program statistics:

 Available memory in ccsd:               511999732
 Min. memory needed in ccsd:                 43586
 Max. memory used in ccsd:                   48220
 Max. memory used in cckext:                 68222 ( 7 integral passes)
 Max. memory used in cckint:                165805 ( 1 integral passes)



 **********************************************************************************************************************************
 DATASETS  * FILE   NREC   LENGTH (MB)   RECORD NAMES
              1      20       22.79       500      610      700      900      950      970     1000      129      960     1100   
                                          VAR    BASINP    GEOM    SYMINP    ZMAT    AOBASIS   BASIS     P2S    ABASIS      S 
                                         1400     1410     1420     1200     1210     1080     1600     1650     1300     1700   
                                         EKIN       V       ECP      H0       H01     AOSYM     SMH    MOLCAS    ERIS     OPER   

              2       4        2.78       700     1000      520     2100   
                                         GEOM     BASIS   MCVARS     RHF  

 PROGRAMS   *        TOTAL  UCCSD(T)        HF       INT
 CPU TIMES  *         1.18      0.23      0.11      0.69
 REAL TIME  *         3.13 SEC
 DISK USED  *        34.49 MB      
 **********************************************************************************************************************************
 SETTING POSTHF(I)      =        -9.79858414  AU                              
                                                                                                                                                                                                                                                                

       SCF           POSTHF       EKIN          POT
    -9.66837630   -9.79858414   6.75186129   -4.74876836
                                                  

 UCCSD(T)/USERDEF energy=     -9.798584137476

        UCCSD(T)        HF-SCF  
     -9.79858414     -9.66837630
 **********************************************************************************************************************************
 Variable memory released
