nohup: ignoring input
----- GAMESS execution script 'rungms' -----
This job is running on host gwang18-OptiPlex-3040
under operating system Linux at 2018年 07月 30日 星期一 14:39:25 EDT
Available scratch disk space (Kbyte units) at beginning of the job is
Filesystem     1K-blocks      Used Available Use% Mounted on
/dev/sda6      216112148 110303144  94808020  54% /
GAMESS temporary binary files will be written to /home/gwang18/research/gamess/ecpcorrelation/fe/stu/hf
GAMESS supplementary output files will be written to /home/gwang18/research/gamess/ecpcorrelation/fe/stu/hf
Copying input file fe.inp to your run's scratch directory...
cp fe.inp /home/gwang18/research/gamess/ecpcorrelation/fe/stu/hf/fe.F05
unset echo
/home/gwang18/software/gamess/ddikick.x /home/gwang18/software/gamess/gamess.00.x fe -ddi 1 1 gwang18-OptiPlex-3040 -scr /home/gwang18/research/gamess/ecpcorrelation/fe/stu/hf

 Distributed Data Interface kickoff program.
 Initiating 1 compute processes on 1 nodes to run the following command:
 /home/gwang18/software/gamess/gamess.00.x fe 

          ******************************************************
          *         GAMESS VERSION =  5 DEC 2014 (R1)          *
          *             FROM IOWA STATE UNIVERSITY             *
          * M.W.SCHMIDT, K.K.BALDRIDGE, J.A.BOATZ, S.T.ELBERT, *
          *   M.S.GORDON, J.H.JENSEN, S.KOSEKI, N.MATSUNAGA,   *
          *          K.A.NGUYEN, S.J.SU, T.L.WINDUS,           *
          *       TOGETHER WITH M.DUPUIS, J.A.MONTGOMERY       *
          *         J.COMPUT.CHEM.  14, 1347-1363(1993)        *
          **************** 64 BIT LINUX VERSION ****************

  SINCE 1993, STUDENTS AND POSTDOCS WORKING AT IOWA STATE UNIVERSITY
  AND ALSO IN THEIR VARIOUS JOBS AFTER LEAVING ISU HAVE MADE IMPORTANT
  CONTRIBUTIONS TO THE CODE:
     IVANA ADAMOVIC, CHRISTINE AIKENS, YURI ALEXEEV, POOJA ARORA,
     ANDREY ASADCHEV, ROB BELL, PRADIPTA BANDYOPADHYAY, JONATHAN BENTZ,
     BRETT BODE, KURT BRORSEN, CALEB CARLIN, GALINA CHABAN, WEI CHEN,
     CHEOL HO CHOI, PAUL DAY, ALBERT DEFUSCO, NUWAN DESILVA, TIM DUDLEY,
     DMITRI FEDOROV, GRAHAM FLETCHER, MARK FREITAG, KURT GLAESEMANN,
     DAN KEMP, GRANT MERRILL, NORIYUKI MINEZAWA, JONATHAN MULLIN,
     TAKESHI NAGATA, SEAN NEDD, HEATHER NETZLOFF, BOSILJKA NJEGIC, RYAN OLSON,
     MIKE PAK, SPENCER PRUITT, LUKE ROSKOP, JIM SHOEMAKER, LYUDMILA SLIPCHENKO,
     TONY SMITH, SAROM SOK, JIE SONG, TETSUYA TAKETSUGU, SIMON WEBB,
     PENG XU, SOOHAENG YOO, FEDERICO ZAHARIEV

  ADDITIONAL CODE HAS BEEN PROVIDED BY COLLABORATORS IN OTHER GROUPS:
     IOWA STATE UNIVERSITY:
          JOE IVANIC, AARON WEST, LAIMUTIS BYTAUTAS, KLAUS RUEDENBERG
     UNIVERSITY OF TOKYO: KIMIHIKO HIRAO, TAKAHITO NAKAJIMA,
          TAKAO TSUNEDA, MUNEAKI KAMIYA, SUSUMU YANAGISAWA,
          KIYOSHI YAGI, MAHITO CHIBA, SEIKEN TOKURA, NAOAKI KAWAKAMI
     UNIVERSITY OF AARHUS: FRANK JENSEN
     UNIVERSITY OF IOWA: VISVALDAS KAIRYS, HUI LI
     NATIONAL INST. OF STANDARDS AND TECHNOLOGY: WALT STEVENS, DAVID GARMER
     UNIVERSITY OF PISA: BENEDETTA MENNUCCI, JACOPO TOMASI
     UNIVERSITY OF MEMPHIS: HENRY KURTZ, PRAKASHAN KORAMBATH
     UNIVERSITY OF ALBERTA: TOBY ZENG, MARIUSZ KLOBUKOWSKI
     UNIVERSITY OF NEW ENGLAND: MARK SPACKMAN
     MIE UNIVERSITY: HIROAKI UMEDA
     NAT. INST. OF ADVANCED INDUSTRIAL SCIENCE AND TECHNOLOGY: KAZUO KITAURA
     MICHIGAN STATE UNIVERSITY:
          KAROL KOWALSKI, MARTA WLOCH, JEFFREY GOUR, JESSE LUTZ,
          WEI LI, PIOTR PIECUCH
     UNIVERSITY OF SILESIA: MONIKA MUSIAL, STANISLAW KUCHARSKI
     FACULTES UNIVERSITAIRES NOTRE-DAME DE LA PAIX:
          OLIVIER QUINET, BENOIT CHAMPAGNE
     UNIVERSITY OF CALIFORNIA - SANTA BARBARA: BERNARD KIRTMAN
     INSTITUTE FOR MOLECULAR SCIENCE:
          KAZUYA ISHIMURA, MICHIO KATOUDA, AND SHIGERU NAGASE
     UNIVERSITY OF NOTRE DAME: ANNA POMOGAEVA, DAN CHIPMAN
     KYUSHU UNIVERSITY:
          HARUYUKI NAKANO,
          FENG LONG GU, JACEK KORCHOWIEC, MARCIN MAKOWSKI, AND YURIKO AOKI,
          HIROTOSHI MORI AND EISAKU MIYOSHI
     PENNSYLVANIA STATE UNIVERSITY:
          TZVETELIN IORDANOV, CHET SWALINA, JONATHAN SKONE,
          SHARON HAMMES-SCHIFFER
     WASEDA UNIVERSITY:
          MASATO KOBAYASHI, TOMOKO AKAMA, TSUGUKI TOUMA,
          TAKESHI YOSHIKAWA, YASUHIRO IKABATA, HIROMI NAKAI
     NANJING UNIVERSITY: SHUHUA LI
     UNIVERSITY OF NEBRASKA:
          PEIFENG SU, DEJUN SI, NANDUN THELLAMUREGE, YALI WANG, HUI LI
     UNIVERSITY OF ZURICH: ROBERTO PEVERATI, KIM BALDRIDGE
     N. COPERNICUS UNIVERSITY AND JACKSON STATE UNIVERSITY:
          MARIA BARYSZ
     UNIVERSITY OF COPENHAGEN: CASPER STEINMANN
     TOKYO INSTITUTE OF TECHNOLOGY: HIROYA NAKATA
     NAGOYA UNIVERSITY: YOSHIO NISHIMOTO, STEPHAN IRLE

 EXECUTION OF GAMESS BEGUN Mon Jul 30 14:39:25 2018

            ECHO OF THE FIRST FEW INPUT CARDS -
 INPUT CARD> $CONTRL                                                                        
 INPUT CARD>     SCFTYP=ROHF                                                                
 INPUT CARD>     MULT=5                                                                     
 INPUT CARD>     ICHARG=0                                                                   
 INPUT CARD>     RUNTYP=ENERGY                                                              
 INPUT CARD>     MAXIT=150                                                                  
 INPUT CARD>     PP=READ                                                                    
 INPUT CARD> $END                                                                           
 INPUT CARD>                                                                                
 INPUT CARD> $CONTRL                                                                        
 INPUT CARD>     ISPHER=1                                                                   
 INPUT CARD> $END                                                                           
 INPUT CARD>                                                                                
 INPUT CARD> $SYSTEM                                                                        
 INPUT CARD>     KDIAG=3                                                                    
 INPUT CARD>     mwords=125                                                                 
 INPUT CARD> $END                                                                           
 INPUT CARD>                                                                                
 INPUT CARD> $GUESS                                                                         
 INPUT CARD>    GUESS=MOREAD                                                                
 INPUT CARD>    NORB=187                                                                    
 INPUT CARD>    NORDER=1                                                                    
 INPUT CARD>    IORDER(5)=10,5,6,7,8,9                                                      
 INPUT CARD> $END                                                                           
 INPUT CARD>                                                                                
 INPUT CARD> $DATA                                                                          
 INPUT CARD>                                                                                
 INPUT CARD>C1                                                                              
 INPUT CARD>Fe 26 0. 0. 0.                                                                  
 INPUT CARD>S    1                                                                          
 INPUT CARD>  1     84.322332      1.000000                                                 
 INPUT CARD>S    1                                                                          
 INPUT CARD>  1     44.203528      1.000000                                                 
 INPUT CARD>S    1                                                                          
 INPUT CARD>  1     23.288963      1.000000                                                 
 INPUT CARD>S    1                                                                          
 INPUT CARD>  1     13.385163      1.000000                                                 
 INPUT CARD>S    1                                                                          
 INPUT CARD>  1      7.518052      1.000000                                                 
 INPUT CARD>S    1                                                                          
 INPUT CARD>  1      4.101835      1.000000                                                 
 INPUT CARD>S    1                                                                          
 INPUT CARD>  1      2.253571      1.000000                                                 
 INPUT CARD>S    1                                                                          
 INPUT CARD>  1      1.134924      1.000000                                                 
 INPUT CARD>S    1                                                                          
 INPUT CARD>  1      0.561550      1.000000                                                 
 INPUT CARD>S    1                                                                          
 INPUT CARD>  1      0.201961      1.000000                                                 
 INPUT CARD>S    1                                                                          
  125000000 WORDS OF MEMORY AVAILABLE


     RUN TITLE
     ---------
                                                                                 

 THE POINT GROUP OF THE MOLECULE IS C1      
 THE ORDER OF THE PRINCIPAL AXIS IS     0

 ATOM      ATOMIC                      COORDINATES (BOHR)
           CHARGE         X                   Y                   Z
 FE         26.0     0.0000000000        0.0000000000        0.0000000000

          INTERNUCLEAR DISTANCES (ANGS.)
          ------------------------------

                1 FE    

   1 FE      0.0000000  

  * ... LESS THAN  3.000


     ATOMIC BASIS SET
     ----------------
 THE CONTRACTED PRIMITIVE FUNCTIONS HAVE BEEN UNNORMALIZED
 THE CONTRACTED BASIS FUNCTIONS ARE NOW NORMALIZED TO UNITY

  SHELL TYPE  PRIMITIVE        EXPONENT          CONTRACTION COEFFICIENT(S)

 FE        

      1   S       1            84.3223320    1.000000000000

      2   S       2            44.2035280    1.000000000000

      3   S       3            23.2889630    1.000000000000

      4   S       4            13.3851630    1.000000000000

      5   S       5             7.5180520    1.000000000000

      6   S       6             4.1018350    1.000000000000

      7   S       7             2.2535710    1.000000000000

      8   S       8             1.1349240    1.000000000000

      9   S       9             0.5615500    1.000000000000

     10   S      10             0.2019610    1.000000000000

     11   S      11             0.1086980    1.000000000000

     12   S      12             0.0536190    1.000000000000

     13   S      13             0.0258230    1.000000000000

     14   S      14             0.0120000    1.000000000000

     15   P      15           125.0927750    1.000000000000

     16   P      16            65.2115890    1.000000000000

     17   P      17            34.4375990    1.000000000000

     18   P      18            18.9307040    1.000000000000

     19   P      19            10.8734150    1.000000000000

     20   P      20             6.0121720    1.000000000000

     21   P      21             3.3722050    1.000000000000

     22   P      22             1.7686410    1.000000000000

     23   P      23             0.9145160    1.000000000000

     24   P      24             0.4608950    1.000000000000

     25   P      25             0.2044900    1.000000000000

     26   P      26             0.0747410    1.000000000000

     27   P      27             0.0356710    1.000000000000

     28   P      28             0.0170000    1.000000000000

     29   D      29           152.7367420    1.000000000000

     30   D      30            50.7724850    1.000000000000

     31   D      31            26.2535890    1.000000000000

     32   D      32            12.1370220    1.000000000000

     33   D      33             5.8537190    1.000000000000

     34   D      34             2.8562240    1.000000000000

     35   D      35             1.3861320    1.000000000000

     36   D      36             0.6708020    1.000000000000

     37   D      37             0.3302800    1.000000000000

     38   D      38             0.1709070    1.000000000000

     39   D      39             0.0867940    1.000000000000

     40   D      40             0.0400000    1.000000000000

     41   F      41             0.1157780    1.000000000000

     42   F      42             0.3343670    1.000000000000

     43   F      43             0.9656500    1.000000000000

     44   F      44             2.7887930    1.000000000000

     45   F      45             8.0540200    1.000000000000

     46   G      46             0.2277260    1.000000000000

     47   G      47             0.6734440    1.000000000000

     48   G      48             1.9915500    1.000000000000

     49   G      49             5.8895320    1.000000000000

 TOTAL NUMBER OF BASIS SET SHELLS             =   49
 NUMBER OF CARTESIAN GAUSSIAN BASIS FUNCTIONS =  238
 NOTE: THIS RUN WILL RESTRICT THE MO VARIATION SPACE TO SPHERICAL HARMONICS.
 THE NUMBER OF ORBITALS KEPT IN THE VARIATIONAL SPACE WILL BE PRINTED LATER.
 NUMBER OF ELECTRONS                          =   26
 CHARGE OF MOLECULE                           =    0
 SPIN MULTIPLICITY                            =    5
 NUMBER OF OCCUPIED ORBITALS (ALPHA)          =   15
 NUMBER OF OCCUPIED ORBITALS (BETA )          =   11
 TOTAL NUMBER OF ATOMS                        =    1
 THE NUCLEAR REPULSION ENERGY IS        0.0000000000
 NOTE THIS RUN IS USING CORE POTENTIALS, AND THE NUMBER OF ELECTRONS,
 OCCUPIED ORBITALS, AND NUCLEAR REPULSION ENERGY WILL BE ADJUSTED BELOW
 AFTER REMOVAL OF THE CORE CHARGES.

 THIS MOLECULE IS RECOGNIZED AS BEING LINEAR,
 ORBITAL LZ DEGENERACY TOLERANCE ETOLLZ= 1.00E-06

     $CONTRL OPTIONS
     ---------------
 SCFTYP=ROHF         RUNTYP=ENERGY       EXETYP=RUN     
 MPLEVL=       0     CITYP =NONE         CCTYP =NONE         VBTYP =NONE    
 DFTTYP=NONE         TDDFT =NONE    
 MULT  =       5     ICHARG=       0     NZVAR =       0     COORD =UNIQUE  
 PP    =READ         RELWFN=NONE         LOCAL =NONE         NUMGRD=       F
 ISPHER=       1     NOSYM =       0     MAXIT =     150     UNITS =ANGS    
 PLTORB=       F     MOLPLT=       F     AIMPAC=       F     FRIEND=        
 NPRINT=       7     IREST =       0     GEOM  =INPUT   
 NORMF =       0     NORMP =       0     ITOL  =      20     ICUT  =       9
 INTTYP=BEST         GRDTYP=BEST         QMTTOL= 1.0E-06

     $SYSTEM OPTIONS
     ---------------
  REPLICATED MEMORY=   125000000 WORDS (ON EVERY NODE).
 DISTRIBUTED MEMDDI=           0 MILLION WORDS IN AGGREGATE,
 MEMDDI DISTRIBUTED OVER   1 PROCESSORS IS           0 WORDS/PROCESSOR.
 TOTAL MEMORY REQUESTED ON EACH PROCESSOR=   125000000 WORDS.
 TIMLIM=      525600.00 MINUTES, OR     365.0 DAYS.
 PARALL= F  BALTYP=  DLB     KDIAG=    3  COREFL= F
 MXSEQ2=     300 MXSEQ3=     150  mem10=         0

          --------------
          ECP POTENTIALS
          --------------

 PARAMETERS FOR "FE-STU  " ON ATOM    1 WITH ZCORE  10 AND LMAX  3 ARE
 FOR L= 3      COEFF    N           ZETA
    1        0.00000    2        1.00000
 FOR L= 0      COEFF    N           ZETA
    1      253.74959    2       20.93000
    2       37.92285    2        9.44500
 FOR L= 1      COEFF    N           ZETA
    1      161.03681    2       21.76000
    2       27.65130    2        9.17800
 FOR L= 2      COEFF    N           ZETA
    1      -24.43128    2       25.90000
    2       -1.43425    2        8.83500

 THE ECP RUN REMOVES   10 CORE ELECTRONS, AND THE SAME NUMBER OF PROTONS.
 NUMBER OF ELECTRONS KEPT IN THE CALCULATION IS =   16
 NUMBER OF OCCUPIED ORBITALS (ALPHA) KEPT IS    =   10
 NUMBER OF OCCUPIED ORBITALS (BETA ) KEPT IS    =    6
 THE ADJUSTED NUCLEAR REPULSION ENERGY=        0.0000000000
          ECP ANGULAR INTS.........     0.02 SECONDS

          ----------------
          PROPERTIES INPUT
          ----------------

     MOMENTS            FIELD           POTENTIAL          DENSITY
 IEMOM =       1   IEFLD =       0   IEPOT =       0   IEDEN =       0
 WHERE =COMASS     WHERE =NUCLEI     WHERE =NUCLEI     WHERE =NUCLEI  
 OUTPUT=BOTH       OUTPUT=BOTH       OUTPUT=BOTH       OUTPUT=BOTH    
 IEMINT=       0   IEFINT=       0                     IEDINT=       0
                                                       MORB  =       0
          EXTRAPOLATION IN EFFECT
          SOSCF IN EFFECT
 ORBITAL PRINTING OPTION: NPREO=     1   238     2     1

     -------------------------------
     INTEGRAL TRANSFORMATION OPTIONS
     -------------------------------
     NWORD  =            0
     CUTOFF = 1.0E-09     MPTRAN =       0
     DIRTRF =       F     AOINTS =DUP     

          ----------------------
          INTEGRAL INPUT OPTIONS
          ----------------------
 NOPK  =       1 NORDER=       0 SCHWRZ=       F

     ------------------------------------------
     THE POINT GROUP IS C1 , NAXIS= 0, ORDER= 1
     ------------------------------------------

 -- VARIATIONAL SPACE WILL BE RESTRICTED TO PURE SPHERICAL HARMONICS ONLY --
 AFTER EXCLUDING CONTAMINANT COMBINATIONS FROM THE CARTESIAN GAUSSIAN BASIS
 SET, THE NUMBER OF SPHERICAL HARMONICS KEPT IN THE VARIATION SPACE IS  187

     DIMENSIONS OF THE SYMMETRY SUBSPACES ARE
 A   =  187

 ..... DONE SETTING UP THE RUN .....
 STEP CPU TIME =     0.24 TOTAL CPU TIME =        0.2 (    0.0 MIN)
 TOTAL WALL CLOCK TIME=        0.2 SECONDS, CPU UTILIZATION IS  96.00%

          ********************
          1 ELECTRON INTEGRALS
          ********************
 TIME TO DO ORDINARY INTEGRALS=      0.01
 TIME TO DO      ECP INTEGRALS=      0.00
 ...... END OF ONE-ELECTRON INTEGRALS ......
 STEP CPU TIME =     0.01 TOTAL CPU TIME =        0.2 (    0.0 MIN)
 TOTAL WALL CLOCK TIME=        0.2 SECONDS, CPU UTILIZATION IS 100.00%

          -------------
          GUESS OPTIONS
          -------------
          GUESS =MOREAD            NORB  =     187          NORDER=       1
          MIX   =       F          PRTMO =       F          PUNMO =       F
          TOLZ  = 1.0E-08          TOLE  = 1.0E-05
          SYMDEN=       F          PURIFY=       F

 INITIAL GUESS ORBITALS GENERATED BY MOREAD   ROUTINE.

 STATISTICS FOR GENERATION OF SYMMETRY ORBITAL -Q- MATRIX
 NUMBER OF CARTESIAN ATOMIC ORBITALS=        238
 NUMBER OF SPHERICAL CONTAMINANTS DROPPED=    51
 NUMBER OF LINEARLY DEPENDENT MOS DROPPED=     0
 TOTAL NUMBER OF MOS IN VARIATION SPACE=     187

 SYMMETRIES FOR INITIAL GUESS ORBITALS FOLLOW.  ALPHA SET(S).
    10 ORBITALS ARE OCCUPIED (    4 CORE ORBITALS).
     5=A        6=A        7=A        8=A        9=A       10=A       11=A   
    12=A       13=A       14=A       15=A       16=A       17=A       18=A   
    19=A       20=A   

 SYMMETRIES FOR INITIAL GUESS ORBITALS FOLLOW.   BETA SET(S).
     6 ORBITALS ARE OCCUPIED (    4 CORE ORBITALS).
     5=A        6=A        7=A        8=A        9=A       10=A       11=A   
    12=A       13=A       14=A       15=A       16=A   
 ...... END OF INITIAL ORBITAL SELECTION ......
 STEP CPU TIME =     0.08 TOTAL CPU TIME =        0.3 (    0.0 MIN)
 TOTAL WALL CLOCK TIME=        0.3 SECONDS, CPU UTILIZATION IS 100.00%

                    ----------------------
                    AO INTEGRAL TECHNOLOGY
                    ----------------------
     S,P,L SHELL ROTATED AXIS INTEGRALS, REPROGRAMMED BY
        KAZUYA ISHIMURA (IMS) AND JOSE SIERRA (SYNSTAR).
     S,P,D,L SHELL ROTATED AXIS INTEGRALS PROGRAMMED BY
        KAZUYA ISHIMURA (INSTITUTE FOR MOLECULAR SCIENCE).
     S,P,D,F,G SHELL TO TOTAL QUARTET ANGULAR MOMENTUM SUM 5,
        ERIC PROGRAM BY GRAHAM FLETCHER (ELORET AND NASA ADVANCED
        SUPERCOMPUTING DIVISION, AMES RESEARCH CENTER).
     S,P,D,F,G,L SHELL GENERAL RYS QUADRATURE PROGRAMMED BY
        MICHEL DUPUIS (PACIFIC NORTHWEST NATIONAL LABORATORY).

          --------------------
          2 ELECTRON INTEGRALS
          --------------------

 THE -PK- OPTION IS OFF, THE INTEGRALS ARE NOT IN SUPERMATRIX FORM.
 STORING   15000 INTEGRALS/RECORD ON DISK, USING 12 BYTES/INTEGRAL.
 TWO ELECTRON INTEGRAL EVALUATION REQUIRES  140950 WORDS OF MEMORY.
 II,JST,KST,LST =  1  1  1  1 NREC =         1 INTLOC =    1
 II,JST,KST,LST =  2  1  1  1 NREC =         1 INTLOC =    2
 II,JST,KST,LST =  3  1  1  1 NREC =         1 INTLOC =    7
 II,JST,KST,LST =  4  1  1  1 NREC =         1 INTLOC =   22
 II,JST,KST,LST =  5  1  1  1 NREC =         1 INTLOC =   56
 II,JST,KST,LST =  6  1  1  1 NREC =         1 INTLOC =  121
 II,JST,KST,LST =  7  1  1  1 NREC =         1 INTLOC =  232
 II,JST,KST,LST =  8  1  1  1 NREC =         1 INTLOC =  407
 II,JST,KST,LST =  9  1  1  1 NREC =         1 INTLOC =  667
 II,JST,KST,LST = 10  1  1  1 NREC =         1 INTLOC = 1036
 II,JST,KST,LST = 11  1  1  1 NREC =         1 INTLOC = 1541
 II,JST,KST,LST = 12  1  1  1 NREC =         1 INTLOC = 2212
 II,JST,KST,LST = 13  1  1  1 NREC =         1 INTLOC = 3082
 II,JST,KST,LST = 14  1  1  1 NREC =         1 INTLOC = 4187
 II,JST,KST,LST = 15  1  1  1 NREC =         1 INTLOC = 5566
 II,JST,KST,LST = 16  1  1  1 NREC =         1 INTLOC = 6205
 II,JST,KST,LST = 17  1  1  1 NREC =         1 INTLOC = 7804
 II,JST,KST,LST = 18  1  1  1 NREC =         1 INTLOC =10471
 II,JST,KST,LST = 19  1  1  1 NREC =         1 INTLOC =14377
 II,JST,KST,LST = 20  1  1  1 NREC =         2 INTLOC = 4756
 II,JST,KST,LST = 21  1  1  1 NREC =         2 INTLOC =11905
 II,JST,KST,LST = 22  1  1  1 NREC =         3 INTLOC = 6184
 II,JST,KST,LST = 23  1  1  1 NREC =         4 INTLOC = 3016
 II,JST,KST,LST = 24  1  1  1 NREC =         5 INTLOC = 2887
 II,JST,KST,LST = 25  1  1  1 NREC =         6 INTLOC = 6346
 II,JST,KST,LST = 26  1  1  1 NREC =         7 INTLOC =14005
 II,JST,KST,LST = 27  1  1  1 NREC =         9 INTLOC =11539
 II,JST,KST,LST = 28  1  1  1 NREC =        11 INTLOC =14686
 II,JST,KST,LST = 29  1  1  1 NREC =        14 INTLOC = 9241
 II,JST,KST,LST = 30  1  1  1 NREC =        20 INTLOC = 2602
 II,JST,KST,LST = 31  1  1  1 NREC =        27 INTLOC =13018
 II,JST,KST,LST = 32  1  1  1 NREC =        37 INTLOC =14629
 II,JST,KST,LST = 33  1  1  1 NREC =        50 INTLOC =12583
 II,JST,KST,LST = 34  1  1  1 NREC =        66 INTLOC =13036
 II,JST,KST,LST = 35  1  1  1 NREC =        86 INTLOC = 8143
 II,JST,KST,LST = 36  1  1  1 NREC =       110 INTLOC = 6085
 II,JST,KST,LST = 37  1  1  1 NREC =       139 INTLOC = 1024
 II,JST,KST,LST = 38  1  1  1 NREC =       173 INTLOC = 3130
 II,JST,KST,LST = 39  1  1  1 NREC =       213 INTLOC = 8476
 II,JST,KST,LST = 40  1  1  1 NREC =       260 INTLOC =12307
 II,JST,KST,LST = 41  1  1  1 NREC =       315 INTLOC =   85
 II,JST,KST,LST = 42  1  1  1 NREC =       410 INTLOC = 6414
 II,JST,KST,LST = 43  1  1  1 NREC =       533 INTLOC =13266
 II,JST,KST,LST = 44  1  1  1 NREC =       687 INTLOC =14036
 II,JST,KST,LST = 45  1  1  1 NREC =       874 INTLOC =13171
 II,JST,KST,LST = 46  1  1  1 NREC =      1097 INTLOC =14347
 II,JST,KST,LST = 47  1  1  1 NREC =      1485 INTLOC = 8824
 II,JST,KST,LST = 48  1  1  1 NREC =      1991 INTLOC = 3646
 II,JST,KST,LST = 49  1  1  1 NREC =      2631 INTLOC = 2311
 TOTAL NUMBER OF NONZERO TWO-ELECTRON INTEGRALS =            51284055
       3419 INTEGRAL RECORDS WERE STORED ON DISK FILE  8.
  ...... END OF TWO-ELECTRON INTEGRALS .....
 STEP CPU TIME =    15.04 TOTAL CPU TIME =       15.4 (    0.3 MIN)
 TOTAL WALL CLOCK TIME=       16.2 SECONDS, CPU UTILIZATION IS  94.99%

          ---------------------------
                 ROHF SCF CALCULATION
          ---------------------------

     NUCLEAR ENERGY =         0.0000000000
     MAXIT =150     NPUNCH=  2     MULT=  5
     EXTRAP=T  DAMP=F  SHIFT=F  RSTRCT=F  DIIS=F  SOSCF=T
     DENSITY MATRIX CONV=  1.00E-05
     ROHF CANONICALIZATION PARAMETERS
             C-C     O-O     V-V
     ALPHA -0.5000  0.5000  1.5000
     BETA   1.5000  0.5000 -0.5000
     SOSCF WILL OPTIMIZE    1794 ORBITAL ROTATION ANGLES. SOGTOL= 2.500E-01
     MEMORY REQUIRED FOR UHF/ROHF ITERS=    553398 WORDS.

 ITER EX      TOTAL ENERGY        E CHANGE  DENSITY CHANGE    ORB. GRAD 
   1  0     -123.0916145140  -123.0916145140   0.316119589   0.000000000
          ---------------START SECOND ORDER SCF---------------
   2  1     -123.1094740014    -0.0178594873   0.107584045   0.028128264
   3  2     -123.0916890777     0.0177849236   0.055355184   0.054156784
   4  3     -123.1174665267    -0.0257774490   0.088711797   0.018528144
   5  4     -123.1094758180     0.0079907088   0.119879219   0.043117904
   6  5     -123.1178866597    -0.0084108418   0.148639916   0.024153773
   7  6     -123.1069707347     0.0109159250   0.099212190   0.047849323
   8  7     -123.1190488152    -0.0120780805   0.017476473   0.004642542
   9  8     -123.1181378676     0.0009109476   0.011241426   0.012512094
  10  9     -123.1192133775    -0.0010755099   0.001501952   0.000430185
  11 10     -123.1192108682     0.0000025093   0.000983789   0.001220800
  12 11     -123.1192142324    -0.0000033643   0.000430322   0.000107784
  13 12     -123.1192142203     0.0000000121   0.000227258   0.000110962
  14 13     -123.1192142978    -0.0000000775   0.000146056   0.000007183
  15 14     -123.1192142974     0.0000000004   0.000094830   0.000017808
  16 15     -123.1192142980    -0.0000000006   0.000014670   0.000003756
  17 16     -123.1192142980     0.0000000000   0.000012624   0.000003086

          ----------------
          ENERGY CONVERGED
          ----------------
     TIME TO FORM FOCK OPERATORS=      22.9 SECONDS (       1.3 SEC/ITER)
     TIME TO SOLVE SCF EQUATIONS=       0.5 SECONDS (       0.0 SEC/ITER)

 FINAL ROHF ENERGY IS     -123.1192142980 AFTER  17 ITERATIONS

          --------------------
          SPIN SZ   =    2.000
          S-SQUARED =    6.000
          --------------------

 LZ VALUE ANALYSIS FOR THE MOS
 ----------------------------------------
 MO     1 (    1) HAS LZ(WEIGHT)= 0.00(100.0%) 
 MO     2 (    2) HAS LZ(WEIGHT)=-1.00( 50.0%)  1.00( 50.0%) 
 MO     3 (    2) HAS LZ(WEIGHT)=-1.00( 50.0%)  1.00( 50.0%) 
 MO     4 (    3) HAS LZ(WEIGHT)= 0.00(100.0%) 
 MO     5 (    4) HAS LZ(WEIGHT)= 0.00(100.0%) 
 MO     6 (    5) HAS LZ(WEIGHT)= 0.00(100.0%) 
 MO     7 (    6) HAS LZ(WEIGHT)= 0.00(100.0%) 
 MO     8 (    7) HAS LZ(WEIGHT)=-1.00( 50.0%)  1.00( 50.0%) 
 MO     9 (    7) HAS LZ(WEIGHT)=-1.00( 50.0%)  1.00( 50.0%) 
 MO    10 (    8) HAS LZ(WEIGHT)= 0.00(100.0%) 
 MO    11 (    9) HAS LZ(WEIGHT)= 0.00(100.0%) 
 MO    12 (   10) HAS LZ(WEIGHT)= 0.00(100.0%) 
 MO    13 (   11) HAS LZ(WEIGHT)=-1.00( 50.0%)  1.00( 50.0%) 
 MO    14 (   11) HAS LZ(WEIGHT)=-1.00( 50.0%)  1.00( 50.0%) 
 MO    15 (   12) HAS LZ(WEIGHT)= 0.00(100.0%) 
 MO    16 (   13) HAS LZ(WEIGHT)=-1.00( 50.0%)  1.00( 50.0%) 
 MO    17 (   13) HAS LZ(WEIGHT)=-1.00( 50.0%)  1.00( 50.0%) 
 MO    18 (   14) HAS LZ(WEIGHT)= 0.00(100.0%) 
 MO    19 (   15) HAS LZ(WEIGHT)= 0.00(100.0%) 
 MO    20 (   16) HAS LZ(WEIGHT)=-1.00( 50.0%)  1.00( 50.0%) 
 MO    21 (   16) HAS LZ(WEIGHT)=-1.00( 50.0%)  1.00( 50.0%) 
 MO    22 (   17) HAS LZ(WEIGHT)= 0.00(100.0%) 
 MO    23 (   18) HAS LZ(WEIGHT)= 0.00(100.0%) 
 MO    24 (   19) HAS LZ(WEIGHT)= 0.00(100.0%) 
 MO    25 (   20) HAS LZ(WEIGHT)=-1.00( 50.0%)  1.00( 50.0%) 
 MO    26 (   20) HAS LZ(WEIGHT)=-1.00( 50.0%)  1.00( 50.0%) 
 MO    27 (   21) HAS LZ(WEIGHT)= 0.00(100.0%) 
 MO    28 (   22) HAS LZ(WEIGHT)=-1.00( 50.0%)  1.00( 50.0%) 
 MO    29 (   22) HAS LZ(WEIGHT)=-1.00( 50.0%)  1.00( 50.0%) 
 MO    30 (   23) HAS LZ(WEIGHT)= 0.00(100.0%) 
 MO    31 (   24) HAS LZ(WEIGHT)= 0.00(100.0%) 
 MO    32 (   25) HAS LZ(WEIGHT)= 0.00(100.0%) 
 MO    33 (   26) HAS LZ(WEIGHT)= 0.00(100.0%) 
 MO    34 (   27) HAS LZ(WEIGHT)=-0.93( 50.0%)  0.93( 50.0%) 
 MO    35 (   27) HAS LZ(WEIGHT)=-0.93( 50.0%)  0.93( 50.0%) 
 MO    36 (   28) HAS LZ(WEIGHT)= 0.00(100.0%) 
 MO    37 (   29) HAS LZ(WEIGHT)= 0.00(100.0%) 
 MO    38 (   30) HAS LZ(WEIGHT)=-2.93( 50.0%)  2.93( 50.0%) 
 MO    39 (   30) HAS LZ(WEIGHT)=-2.93( 50.0%)  2.93( 50.0%) 
 MO    40 (   31) HAS LZ(WEIGHT)= 0.00(100.0%) 
 MO    41 (   32) HAS LZ(WEIGHT)=-1.00( 50.0%)  1.00( 50.0%) 
 MO    42 (   32) HAS LZ(WEIGHT)=-1.00( 50.0%)  1.00( 50.0%) 
 MO    43 (   33) HAS LZ(WEIGHT)= 0.00(100.0%) 
 MO    44 (   34) HAS LZ(WEIGHT)=-1.00( 50.0%)  1.00( 50.0%) 
 MO    45 (   34) HAS LZ(WEIGHT)=-1.00( 50.0%)  1.00( 50.0%) 
 MO    46 (   35) HAS LZ(WEIGHT)= 0.00(100.0%) 
 MO    47 (   36) HAS LZ(WEIGHT)= 0.00(100.0%) 
 MO    48 (   37) HAS LZ(WEIGHT)= 0.00(100.0%) 
 MO    49 (   38) HAS LZ(WEIGHT)= 0.00(100.0%) 
 MO    50 (   39) HAS LZ(WEIGHT)=-0.73( 50.0%)  0.73( 50.0%) 
 MO    51 (   39) HAS LZ(WEIGHT)=-0.73( 50.0%)  0.73( 50.0%) 
 MO    52 (   40) HAS LZ(WEIGHT)= 0.00(100.0%) 
 MO    53 (   41) HAS LZ(WEIGHT)= 0.00(100.0%) 
 MO    54 (   42) HAS LZ(WEIGHT)=-2.73( 50.0%)  2.73( 50.0%) 
 MO    55 (   42) HAS LZ(WEIGHT)=-2.73( 50.0%)  2.73( 50.0%) 
 MO    56 (   43) HAS LZ(WEIGHT)= 0.00(100.0%) 
 MO    57 (   44) HAS LZ(WEIGHT)= 0.00(100.0%) 
 MO    58 (   45) HAS LZ(WEIGHT)= 0.00(100.0%) 
 MO    59 (   46) HAS LZ(WEIGHT)=-0.83( 50.0%)  0.83( 50.0%) 
 MO    60 (   46) HAS LZ(WEIGHT)=-0.83( 50.0%)  0.83( 50.0%) 
 MO    61 (   47) HAS LZ(WEIGHT)= 0.00(100.0%) 
 MO    62 (   48) HAS LZ(WEIGHT)= 0.00(100.0%) 
 MO    63 (   49) HAS LZ(WEIGHT)=-2.83( 50.0%)  2.83( 50.0%) 
 MO    64 (   49) HAS LZ(WEIGHT)=-2.83( 50.0%)  2.83( 50.0%) 
 MO    65 (   50) HAS LZ(WEIGHT)= 0.00(100.0%) 
 MO    66 (   51) HAS LZ(WEIGHT)=-1.00( 50.0%)  1.00( 50.0%) 
 MO    67 (   51) HAS LZ(WEIGHT)=-1.00( 50.0%)  1.00( 50.0%) 
 MO    68 (   52) HAS LZ(WEIGHT)= 0.00(100.0%) 
 MO    69 (   53) HAS LZ(WEIGHT)= 0.00(100.0%) 
 MO    70 (   54) HAS LZ(WEIGHT)= 0.00(100.0%) 
 MO    71 (   55) HAS LZ(WEIGHT)=-1.00( 50.0%)  1.00( 50.0%) 
 MO    72 (   55) HAS LZ(WEIGHT)=-1.00( 50.0%)  1.00( 50.0%) 
 MO    73 (   56) HAS LZ(WEIGHT)= 0.00(100.0%) 
 MO    74 (   57) HAS LZ(WEIGHT)= 0.00(100.0%) 
 MO    75 (   58) HAS LZ(WEIGHT)=-0.60( 50.0%)  0.60( 50.0%) 
 MO    76 (   58) HAS LZ(WEIGHT)=-0.60( 50.0%)  0.60( 50.0%) 
 MO    77 (   59) HAS LZ(WEIGHT)= 0.00(100.0%) 
 MO    78 (   60) HAS LZ(WEIGHT)= 0.00(100.0%) 
 MO    79 (   61) HAS LZ(WEIGHT)=-2.59( 50.0%)  2.59( 50.0%) 
 MO    80 (   61) HAS LZ(WEIGHT)=-2.59( 50.0%)  2.59( 50.0%) 
 MO    81 (   62) HAS LZ(WEIGHT)= 0.00(100.0%) 
 MO    82 (   63) HAS LZ(WEIGHT)= 0.00(100.0%) 
 MO    83 (   64) HAS LZ(WEIGHT)= 0.00(100.0%) 
 MO    84 (   65) HAS LZ(WEIGHT)=-0.79( 50.0%)  0.79( 50.0%) 
 MO    85 (   65) HAS LZ(WEIGHT)=-0.79( 50.0%)  0.79( 50.0%) 
 MO    86 (   66) HAS LZ(WEIGHT)= 0.00(100.0%) 
 MO    87 (   67) HAS LZ(WEIGHT)= 0.00(100.0%) 
 MO    88 (   68) HAS LZ(WEIGHT)=-2.79( 50.0%)  2.79( 50.0%) 
 MO    89 (   68) HAS LZ(WEIGHT)=-2.79( 50.0%)  2.79( 50.0%) 
 MO    90 (   69) HAS LZ(WEIGHT)= 0.00(100.0%) 
 MO    91 (   70) HAS LZ(WEIGHT)=-0.99( 50.0%)  0.99( 50.0%) 
 MO    92 (   70) HAS LZ(WEIGHT)=-0.99( 50.0%)  0.99( 50.0%) 
 MO    93 (   71) HAS LZ(WEIGHT)= 0.00(100.0%) 
 MO    94 (   72) HAS LZ(WEIGHT)= 0.00(100.0%) 
 MO    95 (   73) HAS LZ(WEIGHT)= 0.00(100.0%) 
 MO    96 (   74) HAS LZ(WEIGHT)=-1.00( 50.0%)  1.00( 50.0%) 
 MO    97 (   74) HAS LZ(WEIGHT)=-1.00( 50.0%)  1.00( 50.0%) 
 MO    98 (   75) HAS LZ(WEIGHT)= 0.00(100.0%) 
 MO    99 (   76) HAS LZ(WEIGHT)= 0.00(100.0%) 
 MO   100 (   77) HAS LZ(WEIGHT)=-1.00( 50.0%)  1.00( 50.0%) 
 MO   101 (   77) HAS LZ(WEIGHT)=-1.00( 50.0%)  1.00( 50.0%) 
 MO   102 (   78) HAS LZ(WEIGHT)= 0.00(100.0%) 
 MO   103 (   79) HAS LZ(WEIGHT)= 0.00(100.0%) 
 MO   104 (   80) HAS LZ(WEIGHT)= 0.00(100.0%) 
 MO   105 (   81) HAS LZ(WEIGHT)=-0.79( 50.0%)  0.79( 50.0%) 
 MO   106 (   81) HAS LZ(WEIGHT)=-0.79( 50.0%)  0.79( 50.0%) 
 MO   107 (   82) HAS LZ(WEIGHT)= 0.00(100.0%) 
 MO   108 (   83) HAS LZ(WEIGHT)= 0.00(100.0%) 
 MO   109 (   84) HAS LZ(WEIGHT)=-2.79( 50.0%)  2.79( 50.0%) 
 MO   110 (   84) HAS LZ(WEIGHT)=-2.79( 50.0%)  2.79( 50.0%) 
 MO   111 (   85) HAS LZ(WEIGHT)= 0.00(100.0%) 
 MO   112 (   86) HAS LZ(WEIGHT)=-0.46( 50.0%)  0.46( 50.0%) 
 MO   113 (   86) HAS LZ(WEIGHT)=-0.46( 50.0%)  0.46( 50.0%) 
 MO   114 (   87) HAS LZ(WEIGHT)= 0.00(100.0%) 
 MO   115 (   88) HAS LZ(WEIGHT)= 0.00(100.0%) 
 MO   116 (   89) HAS LZ(WEIGHT)=-2.46( 50.0%)  2.46( 50.0%) 
 MO   117 (   89) HAS LZ(WEIGHT)=-2.46( 50.0%)  2.46( 50.0%) 
 MO   118 (   90) HAS LZ(WEIGHT)= 0.00(100.0%) 
 MO   119 (   91) HAS LZ(WEIGHT)= 0.00(100.0%) 
 MO   120 (   92) HAS LZ(WEIGHT)= 0.00(100.0%) 
 MO   121 (   93) HAS LZ(WEIGHT)=-1.00( 50.0%)  1.00( 50.0%) 
 MO   122 (   93) HAS LZ(WEIGHT)=-1.00( 50.0%)  1.00( 50.0%) 
 MO   123 (   94) HAS LZ(WEIGHT)= 0.00(100.0%) 
 MO   124 (   95) HAS LZ(WEIGHT)=-1.00( 50.0%)  1.00( 50.0%) 
 MO   125 (   95) HAS LZ(WEIGHT)=-1.00( 50.0%)  1.00( 50.0%) 
 MO   126 (   96) HAS LZ(WEIGHT)= 0.00(100.0%) 
 MO   127 (   97) HAS LZ(WEIGHT)= 0.00(100.0%) 
 MO   128 (   98) HAS LZ(WEIGHT)= 0.00(100.0%) 
 MO   129 (   99) HAS LZ(WEIGHT)= 0.00(100.0%) 
 MO   130 (  100) HAS LZ(WEIGHT)=-1.00( 50.0%)  1.00( 50.0%) 
 MO   131 (  100) HAS LZ(WEIGHT)=-1.00( 50.0%)  1.00( 50.0%) 
 MO   132 (  101) HAS LZ(WEIGHT)= 0.00(100.0%) 
 MO   133 (  102) HAS LZ(WEIGHT)=-0.48( 50.0%)  0.48( 50.0%) 
 MO   134 (  102) HAS LZ(WEIGHT)=-0.48( 50.0%)  0.48( 50.0%) 
 MO   135 (  103) HAS LZ(WEIGHT)= 0.00(100.0%) 
 MO   136 (  104) HAS LZ(WEIGHT)= 0.00(100.0%) 
 MO   137 (  105) HAS LZ(WEIGHT)=-2.48( 50.0%)  2.48( 50.0%) 
 MO   138 (  105) HAS LZ(WEIGHT)=-2.48( 50.0%)  2.48( 50.0%) 
 MO   139 (  106) HAS LZ(WEIGHT)= 0.00(100.0%) 
 MO   140 (  107) HAS LZ(WEIGHT)= 0.00(100.0%) 
 MO   141 (  108) HAS LZ(WEIGHT)= 0.00(100.0%) 
 MO   142 (  109) HAS LZ(WEIGHT)=-0.81( 50.0%)  0.81( 50.0%) 
 MO   143 (  109) HAS LZ(WEIGHT)=-0.81( 50.0%)  0.81( 50.0%) 
 MO   144 (  110) HAS LZ(WEIGHT)= 0.00(100.0%) 
 MO   145 (  111) HAS LZ(WEIGHT)= 0.00(100.0%) 
 MO   146 (  112) HAS LZ(WEIGHT)=-2.81( 50.0%)  2.81( 50.0%) 
 MO   147 (  112) HAS LZ(WEIGHT)=-2.81( 50.0%)  2.81( 50.0%) 
 MO   148 (  113) HAS LZ(WEIGHT)= 0.00(100.0%) 
 MO   149 (  114) HAS LZ(WEIGHT)=-1.00( 50.0%)  1.00( 50.0%) 
 MO   150 (  114) HAS LZ(WEIGHT)=-1.00( 50.0%)  1.00( 50.0%) 
 MO   151 (  115) HAS LZ(WEIGHT)= 0.00(100.0%) 
 MO   152 (  116) HAS LZ(WEIGHT)= 0.00(100.0%) 
 MO   153 (  117) HAS LZ(WEIGHT)= 0.00(100.0%) 
 MO   154 (  118) HAS LZ(WEIGHT)= 0.00(100.0%) 
 MO   155 (  119) HAS LZ(WEIGHT)=-1.00( 50.0%)  1.00( 50.0%) 
 MO   156 (  119) HAS LZ(WEIGHT)=-1.00( 50.0%)  1.00( 50.0%) 
 MO   157 (  120) HAS LZ(WEIGHT)= 0.00(100.0%) 
 MO   158 (  121) HAS LZ(WEIGHT)= 0.00(100.0%) 
 MO   159 (  122) HAS LZ(WEIGHT)=-1.00( 50.0%)  1.00( 50.0%) 
 MO   160 (  122) HAS LZ(WEIGHT)=-1.00( 50.0%)  1.00( 50.0%) 
 MO   161 (  123) HAS LZ(WEIGHT)= 0.00(100.0%) 
 MO   162 (  124) HAS LZ(WEIGHT)= 0.00(100.0%) 
 MO   163 (  125) HAS LZ(WEIGHT)= 0.00(100.0%) 
 MO   164 (  126) HAS LZ(WEIGHT)=-1.00( 50.0%)  1.00( 50.0%) 
 MO   165 (  126) HAS LZ(WEIGHT)=-1.00( 50.0%)  1.00( 50.0%) 
 MO   166 (  127) HAS LZ(WEIGHT)= 0.00(100.0%) 
 MO   167 (  128) HAS LZ(WEIGHT)= 0.00(100.0%) 
 MO   168 (  129) HAS LZ(WEIGHT)=-1.00( 50.0%)  1.00( 50.0%) 
 MO   169 (  129) HAS LZ(WEIGHT)=-1.00( 50.0%)  1.00( 50.0%) 
 MO   170 (  130) HAS LZ(WEIGHT)= 0.00(100.0%) 
 MO   171 (  131) HAS LZ(WEIGHT)=-1.00( 50.0%)  1.00( 50.0%) 
 MO   172 (  131) HAS LZ(WEIGHT)=-1.00( 50.0%)  1.00( 50.0%) 
 MO   173 (  132) HAS LZ(WEIGHT)= 0.00(100.0%) 
 MO   174 (  133) HAS LZ(WEIGHT)= 0.00(100.0%) 
 MO   175 (  134) HAS LZ(WEIGHT)= 0.00(100.0%) 
 MO   176 (  135) HAS LZ(WEIGHT)= 0.00(100.0%) 
 MO   177 (  136) HAS LZ(WEIGHT)=-1.00( 50.0%)  1.00( 50.0%) 
 MO   178 (  136) HAS LZ(WEIGHT)=-1.00( 50.0%)  1.00( 50.0%) 
 MO   179 (  137) HAS LZ(WEIGHT)= 0.00(100.0%) 
 MO   180 (  138) HAS LZ(WEIGHT)= 0.00(100.0%) 
 MO   181 (  139) HAS LZ(WEIGHT)=-1.00( 50.0%)  1.00( 50.0%) 
 MO   182 (  139) HAS LZ(WEIGHT)=-1.00( 50.0%)  1.00( 50.0%) 
 MO   183 (  140) HAS LZ(WEIGHT)= 0.00(100.0%) 
 MO   184 (  141) HAS LZ(WEIGHT)= 0.00(100.0%) 
 MO   185 (  142) HAS LZ(WEIGHT)= 0.00(100.0%) 
 MO   186 (  143) HAS LZ(WEIGHT)=-1.00( 50.0%)  1.00( 50.0%) 
 MO   187 (  143) HAS LZ(WEIGHT)=-1.00( 50.0%)  1.00( 50.0%) 

          ------------
          EIGENVECTORS
          ------------

                      1          2          3          4          5
                   -3.9488    -2.3525    -2.3525    -2.2161    -0.4164
                     A          A          A          A          A   
    1  FE 1  S    0.005031  -0.000000  -0.000000  -0.000000   0.000000
    2  FE 1  S   -0.021558  -0.000000  -0.000000  -0.000000   0.000000
    3  FE 1  S    0.130573  -0.000000  -0.000000  -0.000000   0.000000
    4  FE 1  S   -0.161457  -0.000000  -0.000000  -0.000000   0.000000
    5  FE 1  S   -0.315838  -0.000000  -0.000000  -0.000000   0.000000
    6  FE 1  S   -0.052096  -0.000000  -0.000000  -0.000000   0.000000
    7  FE 1  S    0.494061  -0.000000  -0.000000  -0.000000   0.000000
    8  FE 1  S    0.580696  -0.000000  -0.000000  -0.000000   0.000000
    9  FE 1  S    0.195992  -0.000000  -0.000000  -0.000000   0.000000
   10  FE 1  S    0.006264  -0.000000  -0.000000  -0.000000   0.000000
   11  FE 1  S    0.001105  -0.000000  -0.000000  -0.000000   0.000000
   12  FE 1  S    0.000954  -0.000000  -0.000000  -0.000000   0.000000
   13  FE 1  S    0.000577  -0.000000  -0.000000  -0.000000   0.000000
   14  FE 1  S   -0.000062  -0.000000  -0.000000  -0.000000   0.000000
   15  FE 1  X   -0.000000   0.000953  -0.000000  -0.000000   0.000000
   16  FE 1  Y   -0.000000  -0.000000   0.000953  -0.000000   0.000000
   17  FE 1  Z   -0.000000  -0.000000  -0.000000   0.000953   0.000000
   18  FE 1  X   -0.000000  -0.001425  -0.000000  -0.000000   0.000000
   19  FE 1  Y   -0.000000  -0.000000  -0.001425  -0.000000   0.000000
   20  FE 1  Z   -0.000000  -0.000000  -0.000000  -0.001427   0.000000
   21  FE 1  X   -0.000000   0.012453  -0.000000  -0.000000   0.000000
   22  FE 1  Y   -0.000000  -0.000000   0.012453  -0.000000   0.000000
   23  FE 1  Z   -0.000000  -0.000000  -0.000000   0.012460   0.000000
   24  FE 1  X   -0.000000  -0.031754  -0.000000  -0.000000   0.000000
   25  FE 1  Y   -0.000000  -0.000000  -0.031754  -0.000000   0.000000
   26  FE 1  Z   -0.000000  -0.000000  -0.000000  -0.031683   0.000000
   27  FE 1  X   -0.000000  -0.071977  -0.000000  -0.000000   0.000000
   28  FE 1  Y   -0.000000  -0.000000  -0.071977  -0.000000   0.000000
   29  FE 1  Z   -0.000000  -0.000000  -0.000000  -0.072181   0.000000
   30  FE 1  X   -0.000000   0.029321  -0.000000  -0.000000   0.000000
   31  FE 1  Y   -0.000000  -0.000000   0.029321  -0.000000   0.000000
   32  FE 1  Z   -0.000000  -0.000000  -0.000000   0.028824   0.000000
   33  FE 1  X   -0.000000   0.273503  -0.000000  -0.000000   0.000000
   34  FE 1  Y   -0.000000  -0.000000   0.273503  -0.000000   0.000000
   35  FE 1  Z   -0.000000  -0.000000  -0.000000   0.273918   0.000000
   36  FE 1  X   -0.000000   0.414755  -0.000000  -0.000000   0.000000
   37  FE 1  Y   -0.000000  -0.000000   0.414755  -0.000000   0.000000
   38  FE 1  Z   -0.000000  -0.000000  -0.000000   0.416796   0.000000
   39  FE 1  X   -0.000000   0.315933  -0.000000  -0.000000   0.000000
   40  FE 1  Y   -0.000000  -0.000000   0.315933  -0.000000   0.000000
   41  FE 1  Z   -0.000000  -0.000000  -0.000000   0.316302   0.000000
   42  FE 1  X   -0.000000   0.106844  -0.000000  -0.000000   0.000000
   43  FE 1  Y   -0.000000  -0.000000   0.106844  -0.000000   0.000000
   44  FE 1  Z   -0.000000  -0.000000  -0.000000   0.104225   0.000000
   45  FE 1  X   -0.000000   0.009829  -0.000000  -0.000000   0.000000
   46  FE 1  Y   -0.000000  -0.000000   0.009829  -0.000000   0.000000
   47  FE 1  Z   -0.000000  -0.000000  -0.000000   0.008805   0.000000
   48  FE 1  X   -0.000000   0.000587  -0.000000  -0.000000   0.000000
   49  FE 1  Y   -0.000000  -0.000000   0.000587  -0.000000   0.000000
   50  FE 1  Z   -0.000000  -0.000000  -0.000000   0.000592   0.000000
   51  FE 1  X   -0.000000  -0.000004  -0.000000  -0.000000   0.000000
   52  FE 1  Y   -0.000000  -0.000000  -0.000004  -0.000000   0.000000
   53  FE 1  Z   -0.000000  -0.000000  -0.000000  -0.000025   0.000000
   54  FE 1  X   -0.000000   0.000012  -0.000000  -0.000000   0.000000
   55  FE 1  Y   -0.000000  -0.000000   0.000012  -0.000000   0.000000
   56  FE 1  Z   -0.000000  -0.000000  -0.000000   0.000020   0.000000
   57  FE 1 XX    0.000001  -0.000000  -0.000000  -0.000000   0.000999
   58  FE 1 YY    0.000001  -0.000000  -0.000000  -0.000000  -0.000999
   59  FE 1 ZZ   -0.000001  -0.000000  -0.000000  -0.000000   0.000000
   60  FE 1 XY   -0.000000  -0.000000  -0.000000  -0.000000   0.000000
   61  FE 1 XZ   -0.000000  -0.000000  -0.000000  -0.000000   0.000000
   62  FE 1 YZ   -0.000000  -0.000000  -0.000000  -0.000000   0.000000
   63  FE 1 XX    0.000005  -0.000000  -0.000000  -0.000000   0.006055
   64  FE 1 YY    0.000005  -0.000000  -0.000000  -0.000000  -0.006055
   65  FE 1 ZZ   -0.000011  -0.000000  -0.000000  -0.000000   0.000000
   66  FE 1 XY   -0.000000  -0.000000  -0.000000  -0.000000   0.000000
   67  FE 1 XZ   -0.000000  -0.000000  -0.000000  -0.000000   0.000000
   68  FE 1 YZ   -0.000000  -0.000000  -0.000000  -0.000000   0.000000
   69  FE 1 XX    0.000012  -0.000000  -0.000000  -0.000000   0.024069
   70  FE 1 YY    0.000012  -0.000000  -0.000000  -0.000000  -0.024069
   71  FE 1 ZZ   -0.000024  -0.000000  -0.000000  -0.000000   0.000000
   72  FE 1 XY   -0.000000  -0.000000  -0.000000  -0.000000   0.000000
   73  FE 1 XZ   -0.000000  -0.000000  -0.000000  -0.000000   0.000000
   74  FE 1 YZ   -0.000000  -0.000000  -0.000000  -0.000000   0.000000
   75  FE 1 XX    0.000109  -0.000000  -0.000000  -0.000000   0.073974
   76  FE 1 YY    0.000109  -0.000000  -0.000000  -0.000000  -0.073974
   77  FE 1 ZZ   -0.000218  -0.000000  -0.000000  -0.000000   0.000000
   78  FE 1 XY   -0.000000  -0.000000  -0.000000  -0.000000   0.000000
   79  FE 1 XZ   -0.000000  -0.000000  -0.000000  -0.000000   0.000000
   80  FE 1 YZ   -0.000000  -0.000000  -0.000000  -0.000000   0.000000
   81  FE 1 XX    0.000079  -0.000000  -0.000000  -0.000000   0.150963
   82  FE 1 YY    0.000079  -0.000000  -0.000000  -0.000000  -0.150963
   83  FE 1 ZZ   -0.000158  -0.000000  -0.000000  -0.000000   0.000000
   84  FE 1 XY   -0.000000  -0.000000  -0.000000  -0.000000   0.000000
   85  FE 1 XZ   -0.000000  -0.000000  -0.000000  -0.000000   0.000000
   86  FE 1 YZ   -0.000000  -0.000000  -0.000000  -0.000000   0.000000
   87  FE 1 XX   -0.000460  -0.000000  -0.000000  -0.000000   0.232969
   88  FE 1 YY   -0.000460  -0.000000  -0.000000  -0.000000  -0.232969
   89  FE 1 ZZ    0.000920  -0.000000  -0.000000  -0.000000   0.000000
   90  FE 1 XY   -0.000000  -0.000000  -0.000000  -0.000000   0.000000
   91  FE 1 XZ   -0.000000  -0.000000  -0.000000  -0.000000   0.000000
   92  FE 1 YZ   -0.000000  -0.000000  -0.000000  -0.000000   0.000000
   93  FE 1 XX   -0.000037  -0.000000  -0.000000  -0.000000   0.259521
   94  FE 1 YY   -0.000037  -0.000000  -0.000000  -0.000000  -0.259521
   95  FE 1 ZZ    0.000074  -0.000000  -0.000000  -0.000000   0.000000
   96  FE 1 XY   -0.000000  -0.000000  -0.000000  -0.000000   0.000000
   97  FE 1 XZ   -0.000000  -0.000000  -0.000000  -0.000000   0.000000
   98  FE 1 YZ   -0.000000  -0.000000  -0.000000  -0.000000   0.000000
   99  FE 1 XX    0.000946  -0.000000  -0.000000  -0.000000   0.225712
  100  FE 1 YY    0.000946  -0.000000  -0.000000  -0.000000  -0.225712
  101  FE 1 ZZ   -0.001893  -0.000000  -0.000000  -0.000000   0.000000
  102  FE 1 XY   -0.000000  -0.000000  -0.000000  -0.000000   0.000000
  103  FE 1 XZ   -0.000000  -0.000000  -0.000000  -0.000000   0.000000
  104  FE 1 YZ   -0.000000  -0.000000  -0.000000  -0.000000   0.000000
  105  FE 1 XX    0.000610  -0.000000  -0.000000  -0.000000   0.138142
  106  FE 1 YY    0.000610  -0.000000  -0.000000  -0.000000  -0.138142
  107  FE 1 ZZ   -0.001220  -0.000000  -0.000000  -0.000000   0.000000
  108  FE 1 XY   -0.000000  -0.000000  -0.000000  -0.000000   0.000000
  109  FE 1 XZ   -0.000000  -0.000000  -0.000000  -0.000000   0.000000
  110  FE 1 YZ   -0.000000  -0.000000  -0.000000  -0.000000   0.000000
  111  FE 1 XX    0.000198  -0.000000  -0.000000  -0.000000   0.061090
  112  FE 1 YY    0.000198  -0.000000  -0.000000  -0.000000  -0.061090
  113  FE 1 ZZ   -0.000396  -0.000000  -0.000000  -0.000000   0.000000
  114  FE 1 XY   -0.000000  -0.000000  -0.000000  -0.000000   0.000000
  115  FE 1 XZ   -0.000000  -0.000000  -0.000000  -0.000000   0.000000
  116  FE 1 YZ   -0.000000  -0.000000  -0.000000  -0.000000   0.000000
  117  FE 1 XX    0.000025  -0.000000  -0.000000  -0.000000   0.015625
  118  FE 1 YY    0.000025  -0.000000  -0.000000  -0.000000  -0.015625
  119  FE 1 ZZ   -0.000049  -0.000000  -0.000000  -0.000000   0.000000
  120  FE 1 XY   -0.000000  -0.000000  -0.000000  -0.000000   0.000000
  121  FE 1 XZ   -0.000000  -0.000000  -0.000000  -0.000000   0.000000
  122  FE 1 YZ   -0.000000  -0.000000  -0.000000  -0.000000   0.000000
  123  FE 1 XX   -0.000000  -0.000000  -0.000000  -0.000000   0.000662
  124  FE 1 YY   -0.000000  -0.000000  -0.000000  -0.000000  -0.000662
  125  FE 1 ZZ    0.000001  -0.000000  -0.000000  -0.000000   0.000000
  126  FE 1 XY   -0.000000  -0.000000  -0.000000  -0.000000   0.000000
  127  FE 1 XZ   -0.000000  -0.000000  -0.000000  -0.000000   0.000000
  128  FE 1 YZ   -0.000000  -0.000000  -0.000000  -0.000000   0.000000
  129  FE 1 XXX  -0.000000  -0.000000  -0.000000  -0.000000   0.000000
  130  FE 1 YYY  -0.000000  -0.000000  -0.000000  -0.000000   0.000000
  131  FE 1 ZZZ  -0.000000  -0.000000  -0.000000   0.000055   0.000000
  132  FE 1 XXY  -0.000000  -0.000000  -0.000040  -0.000000   0.000000
  133  FE 1 XXZ  -0.000000  -0.000000  -0.000000  -0.000037   0.000000
  134  FE 1 YYX  -0.000000  -0.000040  -0.000000  -0.000000   0.000000
  135  FE 1 YYZ  -0.000000  -0.000000  -0.000000  -0.000037   0.000000
  136  FE 1 ZZX  -0.000000   0.000041  -0.000000  -0.000000   0.000000
  137  FE 1 ZZY  -0.000000  -0.000000   0.000041  -0.000000   0.000000
  138  FE 1 XYZ  -0.000000  -0.000000  -0.000000  -0.000000   0.000000
  139  FE 1 XXX  -0.000000   0.001142  -0.000000  -0.000000   0.000000
  140  FE 1 YYY  -0.000000  -0.000000   0.001142  -0.000000   0.000000
  141  FE 1 ZZZ  -0.000000  -0.000000  -0.000000  -0.000041   0.000000
  142  FE 1 XXY  -0.000000  -0.000000  -0.001163  -0.000000   0.000000
  143  FE 1 XXZ  -0.000000  -0.000000  -0.000000   0.000028   0.000000
  144  FE 1 YYX  -0.000000  -0.001163  -0.000000  -0.000000   0.000000
  145  FE 1 YYZ  -0.000000  -0.000000  -0.000000   0.000028   0.000000
  146  FE 1 ZZX  -0.000000  -0.000369  -0.000000  -0.000000   0.000000
  147  FE 1 ZZY  -0.000000  -0.000000  -0.000369  -0.000000   0.000000
  148  FE 1 XYZ  -0.000000  -0.000000  -0.000000  -0.000000   0.000000
  149  FE 1 XXX  -0.000000   0.002305  -0.000000  -0.000000   0.000000
  150  FE 1 YYY  -0.000000  -0.000000   0.002305  -0.000000   0.000000
  151  FE 1 ZZZ  -0.000000  -0.000000  -0.000000   0.001904   0.000000
  152  FE 1 XXY  -0.000000  -0.000000  -0.003824  -0.000000   0.000000
  153  FE 1 XXZ  -0.000000  -0.000000  -0.000000  -0.001278   0.000000
  154  FE 1 YYX  -0.000000  -0.003824  -0.000000  -0.000000   0.000000
  155  FE 1 YYZ  -0.000000  -0.000000  -0.000000  -0.001278   0.000000
  156  FE 1 ZZX  -0.000000   0.000732  -0.000000  -0.000000   0.000000
  157  FE 1 ZZY  -0.000000  -0.000000   0.000732  -0.000000   0.000000
  158  FE 1 XYZ  -0.000000  -0.000000  -0.000000  -0.000000   0.000000
  159  FE 1 XXX  -0.000000   0.001137  -0.000000  -0.000000   0.000000
  160  FE 1 YYY  -0.000000  -0.000000   0.001137  -0.000000   0.000000
  161  FE 1 ZZZ  -0.000000  -0.000000  -0.000000   0.002553   0.000000
  162  FE 1 XXY  -0.000000  -0.000000  -0.003083  -0.000000   0.000000
  163  FE 1 XXZ  -0.000000  -0.000000  -0.000000  -0.001713   0.000000
  164  FE 1 YYX  -0.000000  -0.003083  -0.000000  -0.000000   0.000000
  165  FE 1 YYZ  -0.000000  -0.000000  -0.000000  -0.001713   0.000000
  166  FE 1 ZZX  -0.000000   0.001557  -0.000000  -0.000000   0.000000
  167  FE 1 ZZY  -0.000000  -0.000000   0.001557  -0.000000   0.000000
  168  FE 1 XYZ  -0.000000  -0.000000  -0.000000  -0.000000   0.000000
  169  FE 1 XXX  -0.000000   0.000553  -0.000000  -0.000000   0.000000
  170  FE 1 YYY  -0.000000  -0.000000   0.000553  -0.000000   0.000000
  171  FE 1 ZZZ  -0.000000  -0.000000  -0.000000   0.000461   0.000000
  172  FE 1 XXY  -0.000000  -0.000000  -0.000920  -0.000000   0.000000
  173  FE 1 XXZ  -0.000000  -0.000000  -0.000000  -0.000310   0.000000
  174  FE 1 YYX  -0.000000  -0.000920  -0.000000  -0.000000   0.000000
  175  FE 1 YYZ  -0.000000  -0.000000  -0.000000  -0.000310   0.000000
  176  FE 1 ZZX  -0.000000   0.000178  -0.000000  -0.000000   0.000000
  177  FE 1 ZZY  -0.000000  -0.000000   0.000178  -0.000000   0.000000
  178  FE 1 XYZ  -0.000000  -0.000000  -0.000000  -0.000000   0.000000
  179  FE 1XXXX   0.000001  -0.000000  -0.000000  -0.000000  -0.000094
  180  FE 1YYYY   0.000001  -0.000000  -0.000000  -0.000000   0.000094
  181  FE 1ZZZZ  -0.000002  -0.000000  -0.000000  -0.000000   0.000000
  182  FE 1XXXY  -0.000000  -0.000000  -0.000000  -0.000000   0.000000
  183  FE 1XXXZ  -0.000000  -0.000000  -0.000000  -0.000000   0.000000
  184  FE 1YYYX  -0.000000  -0.000000  -0.000000  -0.000000   0.000000
  185  FE 1YYYZ  -0.000000  -0.000000  -0.000000  -0.000000   0.000000
  186  FE 1ZZZX  -0.000000  -0.000000  -0.000000  -0.000000   0.000000
  187  FE 1ZZZY  -0.000000  -0.000000  -0.000000  -0.000000   0.000000
  188  FE 1XXYY  -0.000004  -0.000000  -0.000000  -0.000000   0.000000
  189  FE 1XXZZ   0.000002  -0.000000  -0.000000  -0.000000   0.000165
  190  FE 1YYZZ   0.000002  -0.000000  -0.000000  -0.000000  -0.000165
  191  FE 1XXYZ  -0.000000  -0.000000  -0.000000  -0.000000   0.000000
  192  FE 1YYXZ  -0.000000  -0.000000  -0.000000  -0.000000   0.000000
  193  FE 1ZZXY  -0.000000  -0.000000  -0.000000  -0.000000   0.000000
  194  FE 1XXXX   0.000426  -0.000000  -0.000000  -0.000000  -0.000538
  195  FE 1YYYY   0.000426  -0.000000  -0.000000  -0.000000   0.000538
  196  FE 1ZZZZ   0.000076  -0.000000  -0.000000  -0.000000   0.000000
  197  FE 1XXXY  -0.000000  -0.000000  -0.000000  -0.000000   0.000000
  198  FE 1XXXZ  -0.000000  -0.000000  -0.000000  -0.000000   0.000000
  199  FE 1YYYX  -0.000000  -0.000000  -0.000000  -0.000000   0.000000
  200  FE 1YYYZ  -0.000000  -0.000000  -0.000000  -0.000000   0.000000
  201  FE 1ZZZX  -0.000000  -0.000000  -0.000000  -0.000000   0.000000
  202  FE 1ZZZY  -0.000000  -0.000000  -0.000000  -0.000000   0.000000
  203  FE 1XXYY  -0.000682  -0.000000  -0.000000  -0.000000   0.000000
  204  FE 1XXZZ  -0.000066  -0.000000  -0.000000  -0.000000   0.000944
  205  FE 1YYZZ  -0.000066  -0.000000  -0.000000  -0.000000  -0.000944
  206  FE 1XXYZ  -0.000000  -0.000000  -0.000000  -0.000000   0.000000
  207  FE 1YYXZ  -0.000000  -0.000000  -0.000000  -0.000000   0.000000
  208  FE 1ZZXY  -0.000000  -0.000000  -0.000000  -0.000000   0.000000
  209  FE 1XXXX   0.000397  -0.000000  -0.000000  -0.000000  -0.000621
  210  FE 1YYYY   0.000397  -0.000000  -0.000000  -0.000000   0.000621
  211  FE 1ZZZZ   0.000077  -0.000000  -0.000000  -0.000000   0.000000
  212  FE 1XXXY  -0.000000  -0.000000  -0.000000  -0.000000   0.000000
  213  FE 1XXXZ  -0.000000  -0.000000  -0.000000  -0.000000   0.000000
  214  FE 1YYYX  -0.000000  -0.000000  -0.000000  -0.000000   0.000000
  215  FE 1YYYZ  -0.000000  -0.000000  -0.000000  -0.000000   0.000000
  216  FE 1ZZZX  -0.000000  -0.000000  -0.000000  -0.000000   0.000000
  217  FE 1ZZZY  -0.000000  -0.000000  -0.000000  -0.000000   0.000000
  218  FE 1XXYY  -0.000629  -0.000000  -0.000000  -0.000000   0.000000
  219  FE 1XXZZ  -0.000068  -0.000000  -0.000000  -0.000000   0.001091
  220  FE 1YYZZ  -0.000068  -0.000000  -0.000000  -0.000000  -0.001091
  221  FE 1XXYZ  -0.000000  -0.000000  -0.000000  -0.000000   0.000000
  222  FE 1YYXZ  -0.000000  -0.000000  -0.000000  -0.000000   0.000000
  223  FE 1ZZXY  -0.000000  -0.000000  -0.000000  -0.000000   0.000000
  224  FE 1XXXX   0.000160  -0.000000  -0.000000  -0.000000  -0.000210
  225  FE 1YYYY   0.000160  -0.000000  -0.000000  -0.000000   0.000210
  226  FE 1ZZZZ   0.000033  -0.000000  -0.000000  -0.000000   0.000000
  227  FE 1XXXY  -0.000000  -0.000000  -0.000000  -0.000000   0.000000
  228  FE 1XXXZ  -0.000000  -0.000000  -0.000000  -0.000000   0.000000
  229  FE 1YYYX  -0.000000  -0.000000  -0.000000  -0.000000   0.000000
  230  FE 1YYYZ  -0.000000  -0.000000  -0.000000  -0.000000   0.000000
  231  FE 1ZZZX  -0.000000  -0.000000  -0.000000  -0.000000   0.000000
  232  FE 1ZZZY  -0.000000  -0.000000  -0.000000  -0.000000   0.000000
  233  FE 1XXYY  -0.000252  -0.000000  -0.000000  -0.000000   0.000000
  234  FE 1XXZZ  -0.000029  -0.000000  -0.000000  -0.000000   0.000369
  235  FE 1YYZZ  -0.000029  -0.000000  -0.000000  -0.000000  -0.000369
  236  FE 1XXYZ  -0.000000  -0.000000  -0.000000  -0.000000   0.000000
  237  FE 1YYXZ  -0.000000  -0.000000  -0.000000  -0.000000   0.000000
  238  FE 1ZZXY  -0.000000  -0.000000  -0.000000  -0.000000   0.000000

                      6          7          8          9         10
                   -0.2347    -0.1883    -0.1763    -0.1763    -0.1408
                     A          A          A          A          A   
    1  FE 1  S   -0.001236   0.000026  -0.000000  -0.000000  -0.000000
    2  FE 1  S    0.005135  -0.000105  -0.000000  -0.000000  -0.000000
    3  FE 1  S   -0.032104   0.000733  -0.000000  -0.000000  -0.000000
    4  FE 1  S    0.042015  -0.001087  -0.000000  -0.000000  -0.000000
    5  FE 1  S    0.081190  -0.001737  -0.000000  -0.000000  -0.000000
    6  FE 1  S    0.007982   0.000066  -0.000000  -0.000000  -0.000000
    7  FE 1  S   -0.138069   0.003203  -0.000000  -0.000000  -0.000000
    8  FE 1  S   -0.227565   0.004663  -0.000000  -0.000000  -0.000000
    9  FE 1  S   -0.170378   0.000973  -0.000000  -0.000000  -0.000000
   10  FE 1  S    0.143709  -0.003137  -0.000000  -0.000000  -0.000000
   11  FE 1  S    0.432449  -0.004235  -0.000000  -0.000000  -0.000000
   12  FE 1  S    0.476184  -0.004970  -0.000000  -0.000000  -0.000000
   13  FE 1  S    0.124212  -0.001111  -0.000000  -0.000000  -0.000000
   14  FE 1  S    0.000416  -0.000031  -0.000000  -0.000000  -0.000000
   15  FE 1  X   -0.000000  -0.000000  -0.000000  -0.000000  -0.000000
   16  FE 1  Y   -0.000000  -0.000000  -0.000000  -0.000000  -0.000000
   17  FE 1  Z   -0.000000  -0.000000  -0.000000  -0.000000  -0.000000
   18  FE 1  X   -0.000000  -0.000000  -0.000000  -0.000000  -0.000000
   19  FE 1  Y   -0.000000  -0.000000  -0.000000  -0.000000  -0.000000
   20  FE 1  Z   -0.000000  -0.000000  -0.000000  -0.000000  -0.000000
   21  FE 1  X   -0.000000  -0.000000  -0.000000  -0.000000  -0.000000
   22  FE 1  Y   -0.000000  -0.000000  -0.000000  -0.000000  -0.000000
   23  FE 1  Z   -0.000000  -0.000000  -0.000000  -0.000000  -0.000000
   24  FE 1  X   -0.000000  -0.000000  -0.000000  -0.000000  -0.000000
   25  FE 1  Y   -0.000000  -0.000000  -0.000000  -0.000000  -0.000000
   26  FE 1  Z   -0.000000  -0.000000  -0.000000  -0.000000  -0.000000
   27  FE 1  X   -0.000000  -0.000000  -0.000000  -0.000000  -0.000000
   28  FE 1  Y   -0.000000  -0.000000  -0.000000  -0.000000  -0.000000
   29  FE 1  Z   -0.000000  -0.000000  -0.000000  -0.000000  -0.000000
   30  FE 1  X   -0.000000  -0.000000  -0.000000  -0.000000  -0.000000
   31  FE 1  Y   -0.000000  -0.000000  -0.000000  -0.000000  -0.000000
   32  FE 1  Z   -0.000000  -0.000000  -0.000000  -0.000000  -0.000000
   33  FE 1  X   -0.000000  -0.000000  -0.000000  -0.000000  -0.000000
   34  FE 1  Y   -0.000000  -0.000000  -0.000000  -0.000000  -0.000000
   35  FE 1  Z   -0.000000  -0.000000  -0.000000  -0.000000  -0.000000
   36  FE 1  X   -0.000000  -0.000000  -0.000000  -0.000000  -0.000000
   37  FE 1  Y   -0.000000  -0.000000  -0.000000  -0.000000  -0.000000
   38  FE 1  Z   -0.000000  -0.000000  -0.000000  -0.000000  -0.000000
   39  FE 1  X   -0.000000  -0.000000  -0.000000  -0.000000  -0.000000
   40  FE 1  Y   -0.000000  -0.000000  -0.000000  -0.000000  -0.000000
   41  FE 1  Z   -0.000000  -0.000000  -0.000000  -0.000000  -0.000000
   42  FE 1  X   -0.000000  -0.000000  -0.000000  -0.000000  -0.000000
   43  FE 1  Y   -0.000000  -0.000000  -0.000000  -0.000000  -0.000000
   44  FE 1  Z   -0.000000  -0.000000  -0.000000  -0.000000  -0.000000
   45  FE 1  X   -0.000000  -0.000000  -0.000000  -0.000000  -0.000000
   46  FE 1  Y   -0.000000  -0.000000  -0.000000  -0.000000  -0.000000
   47  FE 1  Z   -0.000000  -0.000000  -0.000000  -0.000000  -0.000000
   48  FE 1  X   -0.000000  -0.000000  -0.000000  -0.000000  -0.000000
   49  FE 1  Y   -0.000000  -0.000000  -0.000000  -0.000000  -0.000000
   50  FE 1  Z   -0.000000  -0.000000  -0.000000  -0.000000  -0.000000
   51  FE 1  X   -0.000000  -0.000000  -0.000000  -0.000000  -0.000000
   52  FE 1  Y   -0.000000  -0.000000  -0.000000  -0.000000  -0.000000
   53  FE 1  Z   -0.000000  -0.000000  -0.000000  -0.000000  -0.000000
   54  FE 1  X   -0.000000  -0.000000  -0.000000  -0.000000  -0.000000
   55  FE 1  Y   -0.000000  -0.000000  -0.000000  -0.000000  -0.000000
   56  FE 1  Z   -0.000000  -0.000000  -0.000000  -0.000000  -0.000000
   57  FE 1 XX   -0.000002  -0.000596  -0.000000  -0.000000  -0.000000
   58  FE 1 YY   -0.000002  -0.000596  -0.000000  -0.000000  -0.000000
   59  FE 1 ZZ    0.000004   0.001192  -0.000000  -0.000000  -0.000000
   60  FE 1 XY   -0.000000  -0.000000  -0.000000  -0.000000   0.001184
   61  FE 1 XZ   -0.000000  -0.000000   0.001190  -0.000000  -0.000000
   62  FE 1 YZ   -0.000000  -0.000000  -0.000000   0.001190  -0.000000
   63  FE 1 XX   -0.000013  -0.003610  -0.000000  -0.000000  -0.000000
   64  FE 1 YY   -0.000013  -0.003610  -0.000000  -0.000000  -0.000000
   65  FE 1 ZZ    0.000027   0.007220  -0.000000  -0.000000  -0.000000
   66  FE 1 XY   -0.000000  -0.000000  -0.000000  -0.000000   0.007171
   67  FE 1 XZ   -0.000000  -0.000000   0.007208  -0.000000  -0.000000
   68  FE 1 YZ   -0.000000  -0.000000  -0.000000   0.007208  -0.000000
   69  FE 1 XX   -0.000050  -0.014346  -0.000000  -0.000000  -0.000000
   70  FE 1 YY   -0.000050  -0.014346  -0.000000  -0.000000  -0.000000
   71  FE 1 ZZ    0.000101   0.028692  -0.000000  -0.000000  -0.000000
   72  FE 1 XY   -0.000000  -0.000000  -0.000000  -0.000000   0.028501
   73  FE 1 XZ   -0.000000  -0.000000   0.028645  -0.000000  -0.000000
   74  FE 1 YZ   -0.000000  -0.000000  -0.000000   0.028645  -0.000000
   75  FE 1 XX   -0.000173  -0.044063  -0.000000  -0.000000  -0.000000
   76  FE 1 YY   -0.000173  -0.044063  -0.000000  -0.000000  -0.000000
   77  FE 1 ZZ    0.000346   0.088126  -0.000000  -0.000000  -0.000000
   78  FE 1 XY   -0.000000  -0.000000  -0.000000  -0.000000   0.087538
   79  FE 1 XZ   -0.000000  -0.000000   0.087984  -0.000000  -0.000000
   80  FE 1 YZ   -0.000000  -0.000000  -0.000000   0.087984  -0.000000
   81  FE 1 XX   -0.000306  -0.090351  -0.000000  -0.000000  -0.000000
   82  FE 1 YY   -0.000306  -0.090351  -0.000000  -0.000000  -0.000000
   83  FE 1 ZZ    0.000611   0.180701  -0.000000  -0.000000  -0.000000
   84  FE 1 XY   -0.000000  -0.000000  -0.000000  -0.000000   0.179300
   85  FE 1 XZ   -0.000000  -0.000000   0.180357  -0.000000  -0.000000
   86  FE 1 YZ   -0.000000  -0.000000  -0.000000   0.180357  -0.000000
   87  FE 1 XX   -0.000324  -0.140411  -0.000000  -0.000000  -0.000000
   88  FE 1 YY   -0.000324  -0.140411  -0.000000  -0.000000  -0.000000
   89  FE 1 ZZ    0.000648   0.280823  -0.000000  -0.000000  -0.000000
   90  FE 1 XY   -0.000000  -0.000000  -0.000000  -0.000000   0.278302
   91  FE 1 XZ   -0.000000  -0.000000   0.280192  -0.000000  -0.000000
   92  FE 1 YZ   -0.000000  -0.000000  -0.000000   0.280192  -0.000000
   93  FE 1 XX   -0.000517  -0.155853  -0.000000  -0.000000  -0.000000
   94  FE 1 YY   -0.000517  -0.155853  -0.000000  -0.000000  -0.000000
   95  FE 1 ZZ    0.001034   0.311706  -0.000000  -0.000000  -0.000000
   96  FE 1 XY   -0.000000  -0.000000  -0.000000  -0.000000   0.309217
   97  FE 1 XZ   -0.000000  -0.000000   0.311089  -0.000000  -0.000000
   98  FE 1 YZ   -0.000000  -0.000000  -0.000000   0.311089  -0.000000
   99  FE 1 XX   -0.001669  -0.128875  -0.000000  -0.000000  -0.000000
  100  FE 1 YY   -0.001669  -0.128875  -0.000000  -0.000000  -0.000000
  101  FE 1 ZZ    0.003337   0.257749  -0.000000  -0.000000  -0.000000
  102  FE 1 XY   -0.000000  -0.000000  -0.000000  -0.000000   0.258586
  103  FE 1 XZ   -0.000000  -0.000000   0.257999  -0.000000  -0.000000
  104  FE 1 YZ   -0.000000  -0.000000  -0.000000   0.257999  -0.000000
  105  FE 1 XX   -0.002996  -0.068920  -0.000000  -0.000000  -0.000000
  106  FE 1 YY   -0.002996  -0.068920  -0.000000  -0.000000  -0.000000
  107  FE 1 ZZ    0.005991   0.137839  -0.000000  -0.000000  -0.000000
  108  FE 1 XY   -0.000000  -0.000000  -0.000000  -0.000000   0.142778
  109  FE 1 XZ   -0.000000  -0.000000   0.139108  -0.000000  -0.000000
  110  FE 1 YZ   -0.000000  -0.000000  -0.000000   0.139108  -0.000000
  111  FE 1 XX   -0.002983  -0.024011  -0.000000  -0.000000  -0.000000
  112  FE 1 YY   -0.002983  -0.024011  -0.000000  -0.000000  -0.000000
  113  FE 1 ZZ    0.005966   0.048022  -0.000000  -0.000000  -0.000000
  114  FE 1 XY   -0.000000  -0.000000  -0.000000  -0.000000   0.052753
  115  FE 1 XZ   -0.000000  -0.000000   0.049204  -0.000000  -0.000000
  116  FE 1 YZ   -0.000000  -0.000000  -0.000000   0.049204  -0.000000
  117  FE 1 XX   -0.002206  -0.004014  -0.000000  -0.000000  -0.000000
  118  FE 1 YY   -0.002206  -0.004014  -0.000000  -0.000000  -0.000000
  119  FE 1 ZZ    0.004412   0.008029  -0.000000  -0.000000  -0.000000
  120  FE 1 XY   -0.000000  -0.000000  -0.000000  -0.000000   0.009826
  121  FE 1 XZ   -0.000000  -0.000000   0.008475  -0.000000  -0.000000
  122  FE 1 YZ   -0.000000  -0.000000  -0.000000   0.008475  -0.000000
  123  FE 1 XX   -0.000637  -0.000081  -0.000000  -0.000000  -0.000000
  124  FE 1 YY   -0.000637  -0.000081  -0.000000  -0.000000  -0.000000
  125  FE 1 ZZ    0.001274   0.000162  -0.000000  -0.000000  -0.000000
  126  FE 1 XY   -0.000000  -0.000000  -0.000000  -0.000000   0.000236
  127  FE 1 XZ   -0.000000  -0.000000   0.000187  -0.000000  -0.000000
  128  FE 1 YZ   -0.000000  -0.000000  -0.000000   0.000187  -0.000000
  129  FE 1 XXX  -0.000000  -0.000000  -0.000000  -0.000000  -0.000000
  130  FE 1 YYY  -0.000000  -0.000000  -0.000000  -0.000000  -0.000000
  131  FE 1 ZZZ  -0.000000  -0.000000  -0.000000  -0.000000  -0.000000
  132  FE 1 XXY  -0.000000  -0.000000  -0.000000  -0.000000  -0.000000
  133  FE 1 XXZ  -0.000000  -0.000000  -0.000000  -0.000000  -0.000000
  134  FE 1 YYX  -0.000000  -0.000000  -0.000000  -0.000000  -0.000000
  135  FE 1 YYZ  -0.000000  -0.000000  -0.000000  -0.000000  -0.000000
  136  FE 1 ZZX  -0.000000  -0.000000  -0.000000  -0.000000  -0.000000
  137  FE 1 ZZY  -0.000000  -0.000000  -0.000000  -0.000000  -0.000000
  138  FE 1 XYZ  -0.000000  -0.000000  -0.000000  -0.000000  -0.000000
  139  FE 1 XXX  -0.000000  -0.000000  -0.000000  -0.000000  -0.000000
  140  FE 1 YYY  -0.000000  -0.000000  -0.000000  -0.000000  -0.000000
  141  FE 1 ZZZ  -0.000000  -0.000000  -0.000000  -0.000000  -0.000000
  142  FE 1 XXY  -0.000000  -0.000000  -0.000000  -0.000000  -0.000000
  143  FE 1 XXZ  -0.000000  -0.000000  -0.000000  -0.000000  -0.000000
  144  FE 1 YYX  -0.000000  -0.000000  -0.000000  -0.000000  -0.000000
  145  FE 1 YYZ  -0.000000  -0.000000  -0.000000  -0.000000  -0.000000
  146  FE 1 ZZX  -0.000000  -0.000000  -0.000000  -0.000000  -0.000000
  147  FE 1 ZZY  -0.000000  -0.000000  -0.000000  -0.000000  -0.000000
  148  FE 1 XYZ  -0.000000  -0.000000  -0.000000  -0.000000  -0.000000
  149  FE 1 XXX  -0.000000  -0.000000  -0.000000  -0.000000  -0.000000
  150  FE 1 YYY  -0.000000  -0.000000  -0.000000  -0.000000  -0.000000
  151  FE 1 ZZZ  -0.000000  -0.000000  -0.000000  -0.000000  -0.000000
  152  FE 1 XXY  -0.000000  -0.000000  -0.000000  -0.000000  -0.000000
  153  FE 1 XXZ  -0.000000  -0.000000  -0.000000  -0.000000  -0.000000
  154  FE 1 YYX  -0.000000  -0.000000  -0.000000  -0.000000  -0.000000
  155  FE 1 YYZ  -0.000000  -0.000000  -0.000000  -0.000000  -0.000000
  156  FE 1 ZZX  -0.000000  -0.000000  -0.000000  -0.000000  -0.000000
  157  FE 1 ZZY  -0.000000  -0.000000  -0.000000  -0.000000  -0.000000
  158  FE 1 XYZ  -0.000000  -0.000000  -0.000000  -0.000000  -0.000000
  159  FE 1 XXX  -0.000000  -0.000000  -0.000000  -0.000000  -0.000000
  160  FE 1 YYY  -0.000000  -0.000000  -0.000000  -0.000000  -0.000000
  161  FE 1 ZZZ  -0.000000  -0.000000  -0.000000  -0.000000  -0.000000
  162  FE 1 XXY  -0.000000  -0.000000  -0.000000  -0.000000  -0.000000
  163  FE 1 XXZ  -0.000000  -0.000000  -0.000000  -0.000000  -0.000000
  164  FE 1 YYX  -0.000000  -0.000000  -0.000000  -0.000000  -0.000000
  165  FE 1 YYZ  -0.000000  -0.000000  -0.000000  -0.000000  -0.000000
  166  FE 1 ZZX  -0.000000  -0.000000  -0.000000  -0.000000  -0.000000
  167  FE 1 ZZY  -0.000000  -0.000000  -0.000000  -0.000000  -0.000000
  168  FE 1 XYZ  -0.000000  -0.000000  -0.000000  -0.000000  -0.000000
  169  FE 1 XXX  -0.000000  -0.000000  -0.000000  -0.000000  -0.000000
  170  FE 1 YYY  -0.000000  -0.000000  -0.000000  -0.000000  -0.000000
  171  FE 1 ZZZ  -0.000000  -0.000000  -0.000000  -0.000000  -0.000000
  172  FE 1 XXY  -0.000000  -0.000000  -0.000000  -0.000000  -0.000000
  173  FE 1 XXZ  -0.000000  -0.000000  -0.000000  -0.000000  -0.000000
  174  FE 1 YYX  -0.000000  -0.000000  -0.000000  -0.000000  -0.000000
  175  FE 1 YYZ  -0.000000  -0.000000  -0.000000  -0.000000  -0.000000
  176  FE 1 ZZX  -0.000000  -0.000000  -0.000000  -0.000000  -0.000000
  177  FE 1 ZZY  -0.000000  -0.000000  -0.000000  -0.000000  -0.000000
  178  FE 1 XYZ  -0.000000  -0.000000  -0.000000  -0.000000  -0.000000
  179  FE 1XXXX  -0.000120   0.000133  -0.000000  -0.000000  -0.000000
  180  FE 1YYYY  -0.000120   0.000133  -0.000000  -0.000000  -0.000000
  181  FE 1ZZZZ   0.000013   0.000345  -0.000000  -0.000000  -0.000000
  182  FE 1XXXY  -0.000000  -0.000000  -0.000000  -0.000000  -0.000105
  183  FE 1XXXZ  -0.000000  -0.000000  -0.000297  -0.000000  -0.000000
  184  FE 1YYYX  -0.000000  -0.000000  -0.000000  -0.000000  -0.000105
  185  FE 1YYYZ  -0.000000  -0.000000  -0.000000  -0.000297  -0.000000
  186  FE 1ZZZX  -0.000000  -0.000000   0.000390  -0.000000  -0.000000
  187  FE 1ZZZY  -0.000000  -0.000000  -0.000000   0.000390  -0.000000
  188  FE 1XXYY   0.000223   0.000069  -0.000000  -0.000000  -0.000000
  189  FE 1XXZZ  -0.000011  -0.000303  -0.000000  -0.000000  -0.000000
  190  FE 1YYZZ  -0.000011  -0.000303  -0.000000  -0.000000  -0.000000
  191  FE 1XXYZ  -0.000000  -0.000000  -0.000000  -0.000125  -0.000000
  192  FE 1YYXZ  -0.000000  -0.000000  -0.000125  -0.000000  -0.000000
  193  FE 1ZZXY  -0.000000  -0.000000  -0.000000  -0.000000   0.000283
  194  FE 1XXXX  -0.000056   0.001460  -0.000000  -0.000000  -0.000000
  195  FE 1YYYY  -0.000056   0.001460  -0.000000  -0.000000  -0.000000
  196  FE 1ZZZZ   0.000028   0.002209  -0.000000  -0.000000  -0.000000
  197  FE 1XXXY  -0.000000  -0.000000  -0.000000  -0.000000  -0.000578
  198  FE 1XXXZ  -0.000000  -0.000000  -0.002310  -0.000000  -0.000000
  199  FE 1YYYX  -0.000000  -0.000000  -0.000000  -0.000000  -0.000578
  200  FE 1YYYZ  -0.000000  -0.000000  -0.000000  -0.002310  -0.000000
  201  FE 1ZZZX  -0.000000  -0.000000   0.002512  -0.000000  -0.000000
  202  FE 1ZZZY  -0.000000  -0.000000  -0.000000   0.002512  -0.000000
  203  FE 1XXYY   0.000122  -0.000624  -0.000000  -0.000000  -0.000000
  204  FE 1XXZZ  -0.000024  -0.001940  -0.000000  -0.000000  -0.000000
  205  FE 1YYZZ  -0.000024  -0.001940  -0.000000  -0.000000  -0.000000
  206  FE 1XXYZ  -0.000000  -0.000000  -0.000000  -0.000270  -0.000000
  207  FE 1YYXZ  -0.000000  -0.000000  -0.000270  -0.000000  -0.000000
  208  FE 1ZZXY  -0.000000  -0.000000  -0.000000  -0.000000   0.001552
  209  FE 1XXXX   0.000128   0.002053  -0.000000  -0.000000  -0.000000
  210  FE 1YYYY   0.000128   0.002053  -0.000000  -0.000000  -0.000000
  211  FE 1ZZZZ   0.000040   0.002702  -0.000000  -0.000000  -0.000000
  212  FE 1XXXY  -0.000000  -0.000000  -0.000000  -0.000000  -0.000673
  213  FE 1XXXZ  -0.000000  -0.000000  -0.003012  -0.000000  -0.000000
  214  FE 1YYYX  -0.000000  -0.000000  -0.000000  -0.000000  -0.000673
  215  FE 1YYYZ  -0.000000  -0.000000  -0.000000  -0.003012  -0.000000
  216  FE 1ZZZX  -0.000000  -0.000000   0.003087  -0.000000  -0.000000
  217  FE 1ZZZY  -0.000000  -0.000000  -0.000000   0.003087  -0.000000
  218  FE 1XXYY  -0.000189  -0.001234  -0.000000  -0.000000  -0.000000
  219  FE 1XXZZ  -0.000035  -0.002373  -0.000000  -0.000000  -0.000000
  220  FE 1YYZZ  -0.000035  -0.002373  -0.000000  -0.000000  -0.000000
  221  FE 1XXYZ  -0.000000  -0.000000  -0.000000  -0.000101  -0.000000
  222  FE 1YYXZ  -0.000000  -0.000000  -0.000101  -0.000000  -0.000000
  223  FE 1ZZXY  -0.000000  -0.000000  -0.000000  -0.000000   0.001805
  224  FE 1XXXX   0.000019   0.000733  -0.000000  -0.000000  -0.000000
  225  FE 1YYYY   0.000019   0.000733  -0.000000  -0.000000  -0.000000
  226  FE 1ZZZZ   0.000006   0.000961  -0.000000  -0.000000  -0.000000
  227  FE 1XXXY  -0.000000  -0.000000  -0.000000  -0.000000  -0.000237
  228  FE 1XXXZ  -0.000000  -0.000000  -0.001071  -0.000000  -0.000000
  229  FE 1YYYX  -0.000000  -0.000000  -0.000000  -0.000000  -0.000237
  230  FE 1YYYZ  -0.000000  -0.000000  -0.000000  -0.001071  -0.000000
  231  FE 1ZZZX  -0.000000  -0.000000   0.001096  -0.000000  -0.000000
  232  FE 1ZZZY  -0.000000  -0.000000  -0.000000   0.001096  -0.000000
  233  FE 1XXYY  -0.000027  -0.000444  -0.000000  -0.000000  -0.000000
  234  FE 1XXZZ  -0.000006  -0.000844  -0.000000  -0.000000  -0.000000
  235  FE 1YYZZ  -0.000006  -0.000844  -0.000000  -0.000000  -0.000000
  236  FE 1XXYZ  -0.000000  -0.000000  -0.000000  -0.000034  -0.000000
  237  FE 1YYXZ  -0.000000  -0.000000  -0.000034  -0.000000  -0.000000
  238  FE 1ZZXY  -0.000000  -0.000000  -0.000000  -0.000000   0.000637

                     11         12         13         14         15
                    0.0183     0.0212     0.0212     0.0212     0.0669
                     A          A          A          A          A   
    1  FE 1  S    0.000000   0.000046   0.000000   0.000000   0.000000
    2  FE 1  S    0.000000  -0.000614   0.000000   0.000000   0.000000
    3  FE 1  S    0.000000  -0.000555   0.000000   0.000000   0.000000
    4  FE 1  S    0.000000  -0.006200   0.000000   0.000000   0.000000
    5  FE 1  S    0.000000   0.045830   0.000000   0.000000   0.000000
    6  FE 1  S    0.000000  -0.046786   0.000000   0.000000   0.000000
    7  FE 1  S    0.000000   0.040624   0.000000   0.000000   0.000000
    8  FE 1  S    0.000000  -0.153340   0.000000   0.000000   0.000000
    9  FE 1  S    0.000000   0.107586   0.000000   0.000000   0.000000
   10  FE 1  S    0.000000  -0.375314   0.000000   0.000000   0.000000
   11  FE 1  S    0.000000   1.090888   0.000000   0.000000   0.000000
   12  FE 1  S    0.000000  -1.676455   0.000000   0.000000   0.000000
   13  FE 1  S    0.000000   2.989276   0.000000   0.000000   0.000000
   14  FE 1  S    0.000000  -2.631568   0.000000   0.000000   0.000000
   15  FE 1  X    0.000000   0.000000  -0.000124   0.000000   0.000000
   16  FE 1  Y    0.000000   0.000000   0.000000  -0.000124   0.000000
   17  FE 1  Z   -0.000132   0.000000   0.000000   0.000000   0.000025
   18  FE 1  X    0.000000   0.000000   0.000336   0.000000   0.000000
   19  FE 1  Y    0.000000   0.000000   0.000000   0.000336   0.000000
   20  FE 1  Z    0.000319   0.000000   0.000000   0.000000  -0.000586
   21  FE 1  X    0.000000   0.000000  -0.001786   0.000000   0.000000
   22  FE 1  Y    0.000000   0.000000   0.000000  -0.001786   0.000000
   23  FE 1  Z   -0.001851   0.000000   0.000000   0.000000   0.000943
   24  FE 1  X    0.000000   0.000000   0.004765   0.000000   0.000000
   25  FE 1  Y    0.000000   0.000000   0.000000   0.004765   0.000000
   26  FE 1  Z    0.004936   0.000000   0.000000   0.000000  -0.002560
   27  FE 1  X    0.000000   0.000000   0.002130   0.000000   0.000000
   28  FE 1  Y    0.000000   0.000000   0.000000   0.002130   0.000000
   29  FE 1  Z    0.004001   0.000000   0.000000   0.000000   0.023505
   30  FE 1  X    0.000000   0.000000   0.004118   0.000000   0.000000
   31  FE 1  Y    0.000000   0.000000   0.000000   0.004118   0.000000
   32  FE 1  Z    0.002222   0.000000   0.000000   0.000000  -0.030577
   33  FE 1  X    0.000000   0.000000  -0.037253   0.000000   0.000000
   34  FE 1  Y    0.000000   0.000000   0.000000  -0.037253   0.000000
   35  FE 1  Z   -0.040138   0.000000   0.000000   0.000000   0.001526
   36  FE 1  X    0.000000   0.000000  -0.021240   0.000000   0.000000
   37  FE 1  Y    0.000000   0.000000   0.000000  -0.021240   0.000000
   38  FE 1  Z   -0.032420   0.000000   0.000000   0.000000  -0.126493
   39  FE 1  X    0.000000   0.000000  -0.062670   0.000000   0.000000
   40  FE 1  Y    0.000000   0.000000   0.000000  -0.062670   0.000000
   41  FE 1  Z   -0.063249   0.000000   0.000000   0.000000   0.052910
   42  FE 1  X    0.000000   0.000000   0.042910   0.000000   0.000000
   43  FE 1  Y    0.000000   0.000000   0.000000   0.042910   0.000000
   44  FE 1  Z    0.038754   0.000000   0.000000   0.000000  -0.150554
   45  FE 1  X    0.000000   0.000000   0.009298   0.000000   0.000000
   46  FE 1  Y    0.000000   0.000000   0.000000   0.009298   0.000000
   47  FE 1  Z    0.042196   0.000000   0.000000   0.000000   0.382828
   48  FE 1  X    0.000000   0.000000   0.415329   0.000000   0.000000
   49  FE 1  Y    0.000000   0.000000   0.000000   0.415329   0.000000
   50  FE 1  Z    0.416133   0.000000   0.000000   0.000000  -0.432369
   51  FE 1  X    0.000000   0.000000  -0.455685   0.000000   0.000000
   52  FE 1  Y    0.000000   0.000000   0.000000  -0.455685   0.000000
   53  FE 1  Z   -0.355345   0.000000   0.000000   0.000000   2.154223
   54  FE 1  X    0.000000   0.000000   1.140401   0.000000   0.000000
   55  FE 1  Y    0.000000   0.000000   0.000000   1.140401   0.000000
   56  FE 1  Z    1.036757   0.000000   0.000000   0.000000  -1.812171
   57  FE 1 XX    0.000000   0.000002   0.000000   0.000000   0.000000
   58  FE 1 YY    0.000000   0.000002   0.000000   0.000000   0.000000
   59  FE 1 ZZ    0.000000  -0.000003   0.000000   0.000000   0.000000
   60  FE 1 XY    0.000000   0.000000   0.000000   0.000000   0.000000
   61  FE 1 XZ    0.000000   0.000000   0.000000   0.000000   0.000000
   62  FE 1 YZ    0.000000   0.000000   0.000000   0.000000   0.000000
   63  FE 1 XX    0.000000   0.000010   0.000000   0.000000   0.000000
   64  FE 1 YY    0.000000   0.000010   0.000000   0.000000   0.000000
   65  FE 1 ZZ    0.000000  -0.000019   0.000000   0.000000   0.000000
   66  FE 1 XY    0.000000   0.000000   0.000000   0.000000   0.000000
   67  FE 1 XZ    0.000000   0.000000   0.000000   0.000000   0.000000
   68  FE 1 YZ    0.000000   0.000000   0.000000   0.000000   0.000000
   69  FE 1 XX    0.000000   0.000038   0.000000   0.000000   0.000000
   70  FE 1 YY    0.000000   0.000038   0.000000   0.000000   0.000000
   71  FE 1 ZZ    0.000000  -0.000076   0.000000   0.000000   0.000000
   72  FE 1 XY    0.000000   0.000000   0.000000   0.000000   0.000000
   73  FE 1 XZ    0.000000   0.000000   0.000000   0.000000   0.000000
   74  FE 1 YZ    0.000000   0.000000   0.000000   0.000000   0.000000
   75  FE 1 XX    0.000000   0.000114   0.000000   0.000000   0.000000
   76  FE 1 YY    0.000000   0.000114   0.000000   0.000000   0.000000
   77  FE 1 ZZ    0.000000  -0.000228   0.000000   0.000000   0.000000
   78  FE 1 XY    0.000000   0.000000   0.000000   0.000000   0.000000
   79  FE 1 XZ    0.000000   0.000000   0.000000   0.000000   0.000000
   80  FE 1 YZ    0.000000   0.000000   0.000000   0.000000   0.000000
   81  FE 1 XX    0.000000   0.000251   0.000000   0.000000   0.000000
   82  FE 1 YY    0.000000   0.000251   0.000000   0.000000   0.000000
   83  FE 1 ZZ    0.000000  -0.000502   0.000000   0.000000   0.000000
   84  FE 1 XY    0.000000   0.000000   0.000000   0.000000   0.000000
   85  FE 1 XZ    0.000000   0.000000   0.000000   0.000000   0.000000
   86  FE 1 YZ    0.000000   0.000000   0.000000   0.000000   0.000000
   87  FE 1 XX    0.000000   0.000451   0.000000   0.000000   0.000000
   88  FE 1 YY    0.000000   0.000451   0.000000   0.000000   0.000000
   89  FE 1 ZZ    0.000000  -0.000902   0.000000   0.000000   0.000000
   90  FE 1 XY    0.000000   0.000000   0.000000   0.000000   0.000000
   91  FE 1 XZ    0.000000   0.000000   0.000000   0.000000   0.000000
   92  FE 1 YZ    0.000000   0.000000   0.000000   0.000000   0.000000
   93  FE 1 XX    0.000000   0.000319   0.000000   0.000000   0.000000
   94  FE 1 YY    0.000000   0.000319   0.000000   0.000000   0.000000
   95  FE 1 ZZ    0.000000  -0.000639   0.000000   0.000000   0.000000
   96  FE 1 XY    0.000000   0.000000   0.000000   0.000000   0.000000
   97  FE 1 XZ    0.000000   0.000000   0.000000   0.000000   0.000000
   98  FE 1 YZ    0.000000   0.000000   0.000000   0.000000   0.000000
   99  FE 1 XX    0.000000  -0.000237   0.000000   0.000000   0.000000
  100  FE 1 YY    0.000000  -0.000237   0.000000   0.000000   0.000000
  101  FE 1 ZZ    0.000000   0.000474   0.000000   0.000000   0.000000
  102  FE 1 XY    0.000000   0.000000   0.000000   0.000000   0.000000
  103  FE 1 XZ    0.000000   0.000000   0.000000   0.000000   0.000000
  104  FE 1 YZ    0.000000   0.000000   0.000000   0.000000   0.000000
  105  FE 1 XX    0.000000  -0.000836   0.000000   0.000000   0.000000
  106  FE 1 YY    0.000000  -0.000836   0.000000   0.000000   0.000000
  107  FE 1 ZZ    0.000000   0.001672   0.000000   0.000000   0.000000
  108  FE 1 XY    0.000000   0.000000   0.000000   0.000000   0.000000
  109  FE 1 XZ    0.000000   0.000000   0.000000   0.000000   0.000000
  110  FE 1 YZ    0.000000   0.000000   0.000000   0.000000   0.000000
  111  FE 1 XX    0.000000  -0.000579   0.000000   0.000000   0.000000
  112  FE 1 YY    0.000000  -0.000579   0.000000   0.000000   0.000000
  113  FE 1 ZZ    0.000000   0.001158   0.000000   0.000000   0.000000
  114  FE 1 XY    0.000000   0.000000   0.000000   0.000000   0.000000
  115  FE 1 XZ    0.000000   0.000000   0.000000   0.000000   0.000000
  116  FE 1 YZ    0.000000   0.000000   0.000000   0.000000   0.000000
  117  FE 1 XX    0.000000  -0.000813   0.000000   0.000000   0.000000
  118  FE 1 YY    0.000000  -0.000813   0.000000   0.000000   0.000000
  119  FE 1 ZZ    0.000000   0.001625   0.000000   0.000000   0.000000
  120  FE 1 XY    0.000000   0.000000   0.000000   0.000000   0.000000
  121  FE 1 XZ    0.000000   0.000000   0.000000   0.000000   0.000000
  122  FE 1 YZ    0.000000   0.000000   0.000000   0.000000   0.000000
  123  FE 1 XX    0.000000   0.000263   0.000000   0.000000   0.000000
  124  FE 1 YY    0.000000   0.000263   0.000000   0.000000   0.000000
  125  FE 1 ZZ    0.000000  -0.000526   0.000000   0.000000   0.000000
[...]
  178  FE 1 XYZ  -0.000000  -0.000000
  179  FE 1XXXX  -0.000000  -0.000000
  180  FE 1YYYY  -0.000000  -0.000000
  181  FE 1ZZZZ  -0.000000  -0.000000
  182  FE 1XXXY  -0.000000  -0.000000
  183  FE 1XXXZ  -0.000000  -0.000000
  184  FE 1YYYX  -0.000000  -0.000000
  185  FE 1YYYZ  -0.000000  -0.000000
  186  FE 1ZZZX  -0.000000  -0.000000
  187  FE 1ZZZY  -0.000000  -0.000000
  188  FE 1XXYY  -0.000000  -0.000000
  189  FE 1XXZZ  -0.000000  -0.000000
  190  FE 1YYZZ  -0.000000  -0.000000
  191  FE 1XXYZ  -0.000000  -0.000000
  192  FE 1YYXZ  -0.000000  -0.000000
  193  FE 1ZZXY  -0.000000  -0.000000
  194  FE 1XXXX  -0.000000  -0.000000
  195  FE 1YYYY  -0.000000  -0.000000
  196  FE 1ZZZZ  -0.000000  -0.000000
  197  FE 1XXXY  -0.000000  -0.000000
  198  FE 1XXXZ  -0.000000  -0.000000
  199  FE 1YYYX  -0.000000  -0.000000
  200  FE 1YYYZ  -0.000000  -0.000000
  201  FE 1ZZZX  -0.000000  -0.000000
  202  FE 1ZZZY  -0.000000  -0.000000
  203  FE 1XXYY  -0.000000  -0.000000
  204  FE 1XXZZ  -0.000000  -0.000000
  205  FE 1YYZZ  -0.000000  -0.000000
  206  FE 1XXYZ  -0.000000  -0.000000
  207  FE 1YYXZ  -0.000000  -0.000000
  208  FE 1ZZXY  -0.000000  -0.000000
  209  FE 1XXXX  -0.000000  -0.000000
  210  FE 1YYYY  -0.000000  -0.000000
  211  FE 1ZZZZ  -0.000000  -0.000000
  212  FE 1XXXY  -0.000000  -0.000000
  213  FE 1XXXZ  -0.000000  -0.000000
  214  FE 1YYYX  -0.000000  -0.000000
  215  FE 1YYYZ  -0.000000  -0.000000
  216  FE 1ZZZX  -0.000000  -0.000000
  217  FE 1ZZZY  -0.000000  -0.000000
  218  FE 1XXYY  -0.000000  -0.000000
  219  FE 1XXZZ  -0.000000  -0.000000
  220  FE 1YYZZ  -0.000000  -0.000000
  221  FE 1XXYZ  -0.000000  -0.000000
  222  FE 1YYXZ  -0.000000  -0.000000
  223  FE 1ZZXY  -0.000000  -0.000000
  224  FE 1XXXX  -0.000000  -0.000000
  225  FE 1YYYY  -0.000000  -0.000000
  226  FE 1ZZZZ  -0.000000  -0.000000
  227  FE 1XXXY  -0.000000  -0.000000
  228  FE 1XXXZ  -0.000000  -0.000000
  229  FE 1YYYX  -0.000000  -0.000000
  230  FE 1YYYZ  -0.000000  -0.000000
  231  FE 1ZZZX  -0.000000  -0.000000
  232  FE 1ZZZY  -0.000000  -0.000000
  233  FE 1XXYY  -0.000000  -0.000000
  234  FE 1XXZZ  -0.000000  -0.000000
  235  FE 1YYZZ  -0.000000  -0.000000
  236  FE 1XXYZ  -0.000000  -0.000000
  237  FE 1YYXZ  -0.000000  -0.000000
  238  FE 1ZZXY  -0.000000  -0.000000
 ...... END OF ROHF CALCULATION ......
 STEP CPU TIME =    23.81 TOTAL CPU TIME =       39.2 (    0.7 MIN)
 TOTAL WALL CLOCK TIME=       42.0 SECONDS, CPU UTILIZATION IS  93.22%

     ----------------------------------------------------------------
     PROPERTY VALUES FOR THE ROHF  SELF-CONSISTENT FIELD WAVEFUNCTION
     ----------------------------------------------------------------

          -----------------
          ENERGY COMPONENTS
          -----------------

         WAVEFUNCTION NORMALIZATION =       1.0000000000

                ONE ELECTRON ENERGY =    -216.6539436029
                TWO ELECTRON ENERGY =      93.5347293049
           NUCLEAR REPULSION ENERGY =       0.0000000000
                                      ------------------
                       TOTAL ENERGY =    -123.1192142980

 ELECTRON-ELECTRON POTENTIAL ENERGY =      93.5347293049
  NUCLEUS-ELECTRON POTENTIAL ENERGY =    -289.3593879977
   NUCLEUS-NUCLEUS POTENTIAL ENERGY =       0.0000000000
                                      ------------------
             TOTAL POTENTIAL ENERGY =    -195.8246586928
               TOTAL KINETIC ENERGY =      72.7054443948
                 VIRIAL RATIO (V/T) =       2.6933974522

          ---------------------------------------
          MULLIKEN AND LOWDIN POPULATION ANALYSES
          ---------------------------------------

     ATOMIC MULLIKEN POPULATION IN EACH MOLECULAR ORBITAL

                      1          2          3          4          5

                  2.000000   2.000000   2.000000   2.000000   2.000000

    1             2.000000   2.000000   2.000000   2.000000   2.000000

                      6          7          8          9         10

                  2.000000   1.000000   1.000000   1.000000   1.000000

    1             2.000000   1.000000   1.000000   1.000000   1.000000

          MULLIKEN SPHERICAL HARMONIC POPULATIONS
       ATOM           S       P       D      F      G      H      I    TOTAL
    1 FE            2.00    3.00    5.00   0.00   0.00   0.00   0.00   10.00

          MULLIKEN SPHERICAL HARMONIC POPULATIONS
       ATOM           S       P       D      F      G      H      I    TOTAL
    1 FE            2.00    3.00    1.00   0.00   0.00   0.00   0.00    6.00

     ATOMIC SPIN POPULATION (ALPHA MINUS BETA)
       ATOM         MULL.POP.                    LOW.POP.
    1 FE            4.000000                     4.000000

               ----- POPULATIONS IN EACH AO -----
                             MULLIKEN      LOWDIN
              1  FE 1  S      0.00014     0.00001
              2  FE 1  S     -0.00145     0.00006
              3  FE 1  S      0.02265     0.00004
              4  FE 1  S     -0.06120     0.00021
              5  FE 1  S     -0.23568     0.00761
              6  FE 1  S     -0.06430     0.04509
              7  FE 1  S      0.85537     0.11989
              8  FE 1  S      1.14369     0.16881
              9  FE 1  S      0.29751     0.13096
             10  FE 1  S      0.19303     0.10438
             11  FE 1  S      0.74348     0.14162
             12  FE 1  S      0.89658     0.17259
             13  FE 1  S      0.20912     0.12483
             14  FE 1  S      0.00051     0.05075
             15  FE 1  X      0.00003     0.00000
             16  FE 1  Y      0.00003     0.00000
             17  FE 1  Z      0.00003     0.00000
             18  FE 1  X     -0.00010     0.00001
             19  FE 1  Y     -0.00010     0.00001
             20  FE 1  Z     -0.00010     0.00001
             21  FE 1  X      0.00214     0.00008
             22  FE 1  Y      0.00214     0.00008
             23  FE 1  Z      0.00214     0.00008
             24  FE 1  X     -0.01211     0.00099
             25  FE 1  Y     -0.01211     0.00099
             26  FE 1  Z     -0.01209     0.00099
             27  FE 1  X     -0.05168     0.00972
             28  FE 1  Y     -0.05168     0.00972
             29  FE 1  Z     -0.05187     0.00971
             30  FE 1  X      0.03530     0.07086
             31  FE 1  Y      0.03530     0.07086
             32  FE 1  Z      0.03474     0.07101
             33  FE 1  X      0.45728     0.20900
             34  FE 1  Y      0.45728     0.20900
             35  FE 1  Z      0.45844     0.20971
             36  FE 1  X      0.81447     0.32304
             37  FE 1  Y      0.81447     0.32304
             38  FE 1  Z      0.81890     0.32402
             39  FE 1  X      0.59135     0.27857
             40  FE 1  Y      0.59135     0.27857
             41  FE 1  Z      0.59165     0.27850
             42  FE 1  X      0.15472     0.12415
             43  FE 1  Y      0.15472     0.12415
             44  FE 1  Z      0.15053     0.12301
             45  FE 1  X      0.00832     0.02811
             46  FE 1  Y      0.00832     0.02811
             47  FE 1  Z      0.00741     0.02755
             48  FE 1  X      0.00020     0.00254
             49  FE 1  Y      0.00020     0.00254
             50  FE 1  Z      0.00020     0.00246
             51  FE 1  X     -0.00000     0.00032
             52  FE 1  Y     -0.00000     0.00032
             53  FE 1  Z     -0.00000     0.00031
             54  FE 1  X      0.00000     0.00004
             55  FE 1  Y      0.00000     0.00004
             56  FE 1  Z      0.00000     0.00003
             57  FE 1 XX      0.00004     0.00007
             58  FE 1 YY      0.00007     0.00007
             59  FE 1 ZZ      0.00004     0.00005
             60  FE 1 XY      0.00004     0.00006
             61  FE 1 XZ      0.00004     0.00006
             62  FE 1 YZ      0.00000     0.00006
             63  FE 1 XX      0.00091     0.00197
             64  FE 1 YY      0.00171     0.00197
             65  FE 1 ZZ      0.00090     0.00121
             66  FE 1 XY      0.00091     0.00173
             67  FE 1 XZ      0.00091     0.00175
             68  FE 1 YZ      0.00000     0.00175
             69  FE 1 XX      0.00701     0.01151
             70  FE 1 YY      0.01313     0.01151
             71  FE 1 ZZ      0.00692     0.00697
             72  FE 1 XY      0.00699     0.01039
             73  FE 1 XZ      0.00699     0.01050
             74  FE 1 YZ      0.00000     0.01050
             75  FE 1 XX      0.03970     0.05573
             76  FE 1 YY      0.07439     0.05573
             77  FE 1 ZZ      0.03915     0.03673
             78  FE 1 XY      0.03956     0.04326
             79  FE 1 XZ      0.03956     0.04375
             80  FE 1 YZ      0.00000     0.04375
             81  FE 1 XX      0.12257     0.14367
             82  FE 1 YY      0.22906     0.14367
             83  FE 1 ZZ      0.12081     0.10906
             84  FE 1 XY      0.12213     0.07685
             85  FE 1 XZ      0.12213     0.07773
             86  FE 1 YZ      0.00000     0.07773
             87  FE 1 XX      0.24041     0.25679
             88  FE 1 YY      0.44925     0.25679
             89  FE 1 ZZ      0.23704     0.20310
             90  FE 1 XY      0.23957     0.11660
             91  FE 1 XZ      0.23957     0.11785
             92  FE 1 YZ      0.00000     0.11785
             93  FE 1 XX      0.28270     0.23363
             94  FE 1 YY      0.53876     0.23363
             95  FE 1 ZZ      0.28000     0.16922
             96  FE 1 XY      0.28203     0.12843
             97  FE 1 XZ      0.28203     0.12913
             98  FE 1 YZ      0.00000     0.12913
             99  FE 1 XX      0.20613     0.15921
            100  FE 1 YY      0.42555     0.15921
            101  FE 1 ZZ      0.20775     0.10413
            102  FE 1 XY      0.20651     0.09859
            103  FE 1 XZ      0.20651     0.09803
            104  FE 1 YZ      0.00000     0.09803
            105  FE 1 XX      0.08120     0.12572
            106  FE 1 YY      0.20017     0.12572
            107  FE 1 ZZ      0.08515     0.09835
            108  FE 1 XY      0.08205     0.04557
            109  FE 1 XZ      0.08205     0.04428
            110  FE 1 YZ      0.00000     0.04428
            111  FE 1 XX      0.01811     0.11336
            112  FE 1 YY      0.05924     0.11336
            113  FE 1 ZZ      0.02020     0.10721
            114  FE 1 XY      0.01847     0.01477
            115  FE 1 XZ      0.01847     0.01398
            116  FE 1 YZ      0.00000     0.01398
            117  FE 1 XX      0.00171     0.09338
            118  FE 1 YY      0.00852     0.09338
            119  FE 1 ZZ      0.00202     0.09638
            120  FE 1 XY      0.00169     0.00284
            121  FE 1 XZ      0.00169     0.00259
            122  FE 1 YZ      0.00000     0.00259
            123  FE 1 XX      0.00003     0.03260
            124  FE 1 YY      0.00015     0.03260
            125  FE 1 ZZ      0.00002     0.03455
            126  FE 1 XY      0.00001     0.00028
            127  FE 1 XZ      0.00001     0.00024
            128  FE 1 YZ      0.00000     0.00024
            129  FE 1 XXX     0.00000     0.00000
            130  FE 1 YYY     0.00000     0.00000
            131  FE 1 ZZZ    -0.00000     0.00000
            132  FE 1 XXY     0.00000     0.00000
            133  FE 1 XXZ    -0.00000     0.00000
            134  FE 1 YYX     0.00000     0.00000
            135  FE 1 YYZ     0.00000     0.00000
            136  FE 1 ZZX     0.00000     0.00000
            137  FE 1 ZZY     0.00000     0.00000
            138  FE 1 XYZ     0.00000     0.00000
            139  FE 1 XXX     0.00001     0.00437
            140  FE 1 YYY     0.00000     0.00437
            141  FE 1 ZZZ    -0.00000     0.00403
            142  FE 1 XXY    -0.00000     0.00163
            143  FE 1 XXZ    -0.00000     0.00172
            144  FE 1 YYX     0.00000     0.00163
            145  FE 1 YYZ     0.00001     0.00172
            146  FE 1 ZZX     0.00000     0.00184
            147  FE 1 ZZY     0.00000     0.00184
            148  FE 1 XYZ     0.00000     0.00000
            149  FE 1 XXX     0.00004     0.10613
            150  FE 1 YYY     0.00000     0.10613
            151  FE 1 ZZZ     0.00000     0.10510
            152  FE 1 XXY     0.00001     0.04204
            153  FE 1 XXZ     0.00000     0.04315
            154  FE 1 YYX     0.00000     0.04204
            155  FE 1 YYZ     0.00004     0.04315
            156  FE 1 ZZX     0.00000     0.04481
            157  FE 1 ZZY     0.00000     0.04481
            158  FE 1 XYZ     0.00000     0.00000
            159  FE 1 XXX     0.00003     0.30199
            160  FE 1 YYY     0.00000     0.30199
            161  FE 1 ZZZ     0.00001     0.30402
            162  FE 1 XXY     0.00002     0.12318
            163  FE 1 XXZ     0.00001     0.12534
            164  FE 1 YYX     0.00000     0.12318
            165  FE 1 YYZ     0.00003     0.12534
            166  FE 1 ZZX     0.00000     0.12801
            167  FE 1 ZZY     0.00000     0.12801
            168  FE 1 XYZ     0.00000     0.00000
            169  FE 1 XXX     0.00000     0.10831
            170  FE 1 YYY     0.00000     0.10831
            171  FE 1 ZZZ     0.00000     0.10876
            172  FE 1 XXY     0.00000     0.04452
            173  FE 1 XXZ     0.00000     0.04514
            174  FE 1 YYX     0.00000     0.04452
            175  FE 1 YYZ     0.00000     0.04514
            176  FE 1 ZZX     0.00000     0.04573
            177  FE 1 ZZY     0.00000     0.04573
            178  FE 1 XYZ     0.00000     0.00000
            179  FE 1XXXX     0.00000     0.06994
            180  FE 1YYYY     0.00000     0.06994
            181  FE 1ZZZZ     0.00000     0.06839
            182  FE 1XXXY     0.00000     0.00401
            183  FE 1XXXZ     0.00000     0.00362
            184  FE 1YYYX     0.00000     0.00401
            185  FE 1YYYZ     0.00000     0.00362
            186  FE 1ZZZX     0.00000     0.00376
            187  FE 1ZZZY     0.00000     0.00376
            188  FE 1XXYY     0.00000     0.06294
            189  FE 1XXZZ     0.00000     0.06766
            190  FE 1YYZZ     0.00000     0.06766
            191  FE 1XXYZ     0.00000     0.00159
            192  FE 1YYXZ     0.00000     0.00159
            193  FE 1ZZXY     0.00000     0.00180
            194  FE 1XXXX     0.00000     0.11390
            195  FE 1YYYY     0.00000     0.11390
            196  FE 1ZZZZ     0.00000     0.07531
            197  FE 1XXXY     0.00001     0.03667
            198  FE 1XXXZ     0.00001     0.03529
            199  FE 1YYYX     0.00001     0.03667
            200  FE 1YYYZ     0.00000     0.03529
            201  FE 1ZZZX     0.00000     0.03677
            202  FE 1ZZZY     0.00000     0.03677
            203  FE 1XXYY     0.00000     0.04003
            204  FE 1XXZZ     0.00000     0.05141
            205  FE 1YYZZ     0.00000     0.05141
            206  FE 1XXYZ     0.00000     0.01551
            207  FE 1YYXZ     0.00000     0.01551
            208  FE 1ZZXY     0.00000     0.01635
            209  FE 1XXXX     0.00000     0.21872
            210  FE 1YYYY     0.00000     0.21872
            211  FE 1ZZZZ     0.00000     0.14678
            212  FE 1XXXY     0.00001     0.08335
            213  FE 1XXXZ     0.00001     0.08266
            214  FE 1YYYX     0.00001     0.08335
            215  FE 1YYYZ     0.00000     0.08266
            216  FE 1ZZZX     0.00000     0.08539
            217  FE 1ZZZY     0.00000     0.08539
            218  FE 1XXYY     0.00000     0.06827
            219  FE 1XXZZ     0.00000     0.08544
            220  FE 1YYZZ     0.00000     0.08544
            221  FE 1XXYZ     0.00000     0.03612
            222  FE 1YYXZ     0.00000     0.03612
            223  FE 1ZZXY     0.00000     0.03672
            224  FE 1XXXX     0.00000     0.19857
            225  FE 1YYYY     0.00000     0.19857
            226  FE 1ZZZZ     0.00000     0.14785
            227  FE 1XXXY     0.00000     0.06447
            228  FE 1XXXZ     0.00000     0.06474
            229  FE 1YYYX     0.00000     0.06447
            230  FE 1YYYZ     0.00000     0.06474
            231  FE 1ZZZX     0.00000     0.06590
            232  FE 1ZZZY     0.00000     0.06590
            233  FE 1XXYY     0.00000     0.08801
            234  FE 1XXZZ     0.00000     0.10101
            235  FE 1YYZZ     0.00000     0.10101
            236  FE 1XXYZ     0.00000     0.02876
            237  FE 1YYXZ     0.00000     0.02876
            238  FE 1ZZXY     0.00000     0.02875

          ----- MULLIKEN ATOMIC OVERLAP POPULATIONS -----
          (OFF-DIAGONAL ELEMENTS NEED TO BE MULTIPLIED BY 2)

             1

    1   16.0000000

          TOTAL MULLIKEN AND LOWDIN ATOMIC POPULATIONS
       ATOM         MULL.POP.    CHARGE          LOW.POP.     CHARGE
    1 FE           16.000000    0.000000        16.000000   -0.000000

          MULLIKEN SPHERICAL HARMONIC POPULATIONS
       ATOM           S       P       D      F      G      H      I    TOTAL
    1 FE            4.00    6.00    6.00   0.00   0.00   0.00   0.00   16.00

          -------------------------------
          BOND ORDER AND VALENCE ANALYSIS     BOND ORDER THRESHOLD=0.050
          -------------------------------

                   BOND                       BOND                       BOND
  ATOM PAIR DIST  ORDER      ATOM PAIR DIST  ORDER      ATOM PAIR DIST  ORDER

                       TOTAL       BONDED        FREE
      ATOM            VALENCE     VALENCE     VALENCE
    1 FE                4.000       0.000       4.000

          -----------------------------------------
          ATOMIC SPIN DENSITY AT THE NUCLEUS (A.U.)
          -----------------------------------------
                            SPIN DENS    ALPHA DENS     BETA DENS
    1  FE          16.0     0.0000002       0.00743       0.00743

          ---------------------
          ELECTROSTATIC MOMENTS
          ---------------------

 POINT   1           X           Y           Z (BOHR)    CHARGE
                 0.000000    0.000000    0.000000       -0.00 (A.U.)
         DX          DY          DZ         /D/  (DEBYE)
     0.000000    0.000000    0.000000    0.000000
 ...... END OF PROPERTY EVALUATION ......
 STEP CPU TIME =     0.37 TOTAL CPU TIME =       39.5 (    0.7 MIN)
 TOTAL WALL CLOCK TIME=       42.4 SECONDS, CPU UTILIZATION IS  93.21%
               900248  WORDS OF DYNAMIC MEMORY USED
 EXECUTION OF GAMESS TERMINATED NORMALLY Mon Jul 30 14:40:07 2018
 DDI: 263640 bytes (0.3 MB / 0 MWords) used by master data server.

 ----------------------------------------
 CPU timing information for all processes
 ========================================
 0: 33.208 + 6.356 = 39.564
 ----------------------------------------
Note: The following floating-point exceptions are signalling: IEEE_UNDERFLOW_FLAG IEEE_DENORMAL
 ddikick.x: exited gracefully.
unset echo
----- accounting info -----
Files used on the master node gwang18-OptiPlex-3040 were:
-rw-rw-r-- 1 gwang18 gwang18    724886 7月  30 14:40 /home/gwang18/research/gamess/ecpcorrelation/fe/stu/hf/fe.dat
-rw------- 1 gwang18 gwang18    723982 7月  30 14:39 /home/gwang18/research/gamess/ecpcorrelation/fe/stu/hf/fe.F05
-rw-rw-r-- 1 gwang18 gwang18 615474704 7月  30 14:39 /home/gwang18/research/gamess/ecpcorrelation/fe/stu/hf/fe.F08
-rw-rw-r-- 1 gwang18 gwang18  14004160 7月  30 14:40 /home/gwang18/research/gamess/ecpcorrelation/fe/stu/hf/fe.F10
-rw------- 1 gwang18 gwang18    723982 7月  30 14:39 /home/gwang18/research/gamess/ecpcorrelation/fe/stu/hf/fe.inp
-rw-rw-r-- 1 gwang18 gwang18    695732 7月  30 14:40 /home/gwang18/research/gamess/ecpcorrelation/fe/stu/hf/fe.out
ls: No match.
ls: No match.
ls: No match.
2018年 07月 30日 星期一 14:40:10 EDT
0.0u 0.1s 0:45.75 0.3% 0+0k 1088+1424io 7pf+0w
