
 Primary working directories    : /global/cscratch1/sd/aannabe
 Secondary working directories  : /global/cscratch1/sd/aannabe
 Wavefunction directory         : /global/homes/a/aannabe/wfu/
 Main file repository           : /global/cscratch1/sd/aannabe/

 SHA1      : 19cd028119e0e09f93f0674bd8af7968d9b3eff6
 NAME      : 2015.1.36
 ARCHNAME  : linux/x86_64
 FC        : /opt/cray/pe/craype/2.5.14/bin/ftn
 BLASLIB   : -L/opt/intel/compilers_and_libraries_2018.1.163/linux/mkl/lib/intel64 -Wl,-_start-group -lmkl_intel_ilp64 -lmkl_intel_thread -lmkl_core -Wl,-_end-group -liomp5
 id        : lbl

 Nodes     nprocs
 nid00522     1

 Using customized tuning parameters: mindgm=7; mindgv=16; mindgc=1; mindgr=1; noblas=0; minvec=7
 default implementation of scratch files=df  

 ***,Ar
 memory,512,m
 gthresh,twoint=1.e-12
 
 gprint,basis,orbitals
 gexpec,ekin,pot
 
 angstrom
 geometry={
 1                                                                               ! Number of atoms
 Ar 0.0 0.0 0.0
 }
 
 basis={
 Including file /global/homes/a/aannabe/repos/pseudopotentiallibrary/recipes/Ar/ccECP_He_core/Ar.ccECP.molpro
 Including file /global/homes/a/aannabe/repos/pseudopotentiallibrary/recipes/Ar/ccECP_He_core/cc-pCVDZ.molpro
 }
 
 {hf
  wf,16,1,0
  occ,2,2,2,0,2,0,0,0
 }
 scf(i)=energy
 
 _CC_NORM_MAX=2.0
 {rccsd(t)
 maxit,100
 core
 }
 posthf(i)=energy
 
 table,scf,posthf,ekin,pot
 save,2.csv,new
 
 

 Variables initialized (889), CPU time= 0.01 sec
 Commands  initialized (702), CPU time= 0.01 sec, 572 directives.
 Default parameters read. Elapsed time= 0.15 sec

 Checking input...
 Passed
1


                                         ***  PROGRAM SYSTEM MOLPRO  ***
                                       Copyright, TTI GmbH Stuttgart, 2015
                                    Version 2015.1 linked Dec 29 2018 15:55:43


 **********************************************************************************************************************************
 LABEL *   Ar                                                                            
  64 bit serial version                                                                  DATE: 03-Jan-19          TIME: 20:56:57  
 **********************************************************************************************************************************

 SHA1:             19cd028119e0e09f93f0674bd8af7968d9b3eff6
 **********************************************************************************************************************************

 THRESHOLDS:

 ZERO    =  1.00D-12  ONEINT  =  1.00D-12  TWOINT  =  1.00D-12  PREFAC  =  1.00D-14  LOCALI  =  1.00D-09  EORDER  =  1.00D-04
 ENERGY  =  0.00D+00  ETEST   =  0.00D+00  EDENS   =  0.00D+00  THRDEDEF=  1.00D-06  GRADIENT=  1.00D-02  STEP    =  1.00D-03
 ORBITAL =  1.00D-05  CIVEC   =  1.00D-05  COEFF   =  1.00D-04  PRINTCI =  5.00D-02  PUNCHCI =  9.90D+01  OPTGRAD =  3.00D-04
 OPTENERG=  1.00D-06  OPTSTEP =  3.00D-04  THRGRAD =  1.00D-10  COMPRESS=  1.00D-11  VARMIN  =  1.00D-07  VARMAX  =  1.00D-03
 THRDOUB =  0.00D+00  THRDIV  =  1.00D-05  THRRED  =  1.00D-07  THRPSP  =  1.00D+00  THRDC   =  1.00D-10  THRCS   =  1.00D-10
 THRNRM  =  1.00D-08  THREQ   =  0.00D+00  THRDE   =  1.00D+00  THRREF  =  1.00D-05  SPARFAC =  1.00D+00  THRDLP  =  1.00D-07
 THRDIA  =  1.00D-10  THRDLS  =  1.00D-07  THRGPS  =  0.00D+00  THRKEX  =  0.00D+00  THRDIS  =  2.00D-01  THRVAR  =  1.00D-10
 THRLOC  =  1.00D-06  THRGAP  =  1.00D-06  THRLOCT = -1.00D+00  THRGAPT = -1.00D+00  THRORB  =  1.00D-06  THRMLTP =  0.00D+00
 THRCPQCI=  1.00D-10  KEXTA   =  0.00D+00  THRCOARS=  0.00D+00  SYMTOL  =  1.00D-06  GRADTOL =  1.00D-06  THROVL  =  1.00D-08
 THRORTH =  1.00D-08  GRID    =  1.00D-06  GRIDMAX =  1.00D-03  DTMAX   =  0.00D+00  THROCCDE=  1.00D-01  THROCCDE=  1.00D-01



 ZUNIT=ANG
 

Geometry recognized as XYZ


 Variable memory set to  512000000 words,  buffer space   230000 words

 SETTING BASIS          =    USERDEF


 Recomputing integrals since basis changed


 Using spherical harmonics



 PROGRAM * SEWARD (Integral evaluation for generally contracted gaussian basis sets)     Author: Roland Lindh, 1990

 Geometry written to block  1 of record 700

 Orientation using atomic masses  
 Molecule type: Atom
 Symmetry elements: X,Y,Z
 Rotational constants:       0.0000000      0.0000000      0.0000000 GHz  (calculated with average atomic masses)

 Point group  D2h 



 ATOMIC COORDINATES

 NR  ATOM    CHARGE       X              Y              Z

   1  AR      8.00    0.000000000    0.000000000    0.000000000


          AR  CORE POTENTIAL

          d POTENTIAL

 POWERS             1              3              2              1              1
 EXPONENTIALS   23.43134       26.73587       26.00333       0.000000       0.000000    
 COEFFICIENTS   16.00000       374.9014      -178.0395       8.000000      -16.00000    

          s - d POTENTIAL

 POWERS             2              2
 EXPONENTIALS   135.6205       60.47105    
 COEFFICIENTS   25.06921       332.1518    

          p - d POTENTIAL

 POWERS             2
 EXPONENTIALS   1.000000    
 COEFFICIENTS   0.000000    


 BASIS DATA

   Nr Sym  Nuc  Type         Exponents   Contraction coefficients

    1.1 Ag    1  1s         400.805381     0.000092    0.000019
    2.1 Ag                  194.251428    -0.001254    0.000114
                             94.144487     0.028879   -0.008693
                             45.627384    -0.177106    0.061175
                             22.113437    -0.077165    0.026792
                             10.717338     0.210187   -0.077780
                              5.194187     0.554369   -0.290747
                              2.517377     0.359070   -0.320036
                              1.220054     0.040769    0.123933
                              0.591302     0.005087    0.539163
                              0.286576    -0.000644    0.456260
                              0.138890     0.000533    0.131892
    3.1 Ag    1  1s           9.877600     1.000000
    4.1 Ag    1  1s           0.200844     1.000000
    5.1 Ag    1  3d0         11.957673     1.000000
    6.1 Ag    1  3d2+        11.957673     1.000000
    7.1 Ag    1  3d0          0.745011     1.000000
    8.1 Ag    1  3d2+         0.745011     1.000000
    1.2 B3u   1  2px         71.845693     0.014239    0.004145
    2.2 B3u                  38.318786     0.103178    0.028800
                             20.437263     0.185184    0.051916
                             10.900182     0.276357    0.084356
                              5.813595     0.318130    0.103303
                              3.100671     0.211494    0.059763
                              1.653738     0.061926   -0.098524
                              0.882019     0.005821   -0.272871
                              0.470423     0.000838   -0.342112
                              0.250899    -0.000047   -0.289317
                              0.133817     0.000077   -0.143329
                              0.071371    -0.000018   -0.032495
    3.2 B3u   1  2px          4.204774     1.000000
    4.2 B3u   1  2px          0.205249     1.000000
    1.3 B2u   1  2py         71.845693     0.014239    0.004145
    2.3 B2u                  38.318786     0.103178    0.028800
                             20.437263     0.185184    0.051916
                             10.900182     0.276357    0.084356
                              5.813595     0.318130    0.103303
                              3.100671     0.211494    0.059763
                              1.653738     0.061926   -0.098524
                              0.882019     0.005821   -0.272871
                              0.470423     0.000838   -0.342112
                              0.250899    -0.000047   -0.289317
                              0.133817     0.000077   -0.143329
                              0.071371    -0.000018   -0.032495
    3.3 B2u   1  2py          4.204774     1.000000
    4.3 B2u   1  2py          0.205249     1.000000
    1.4 B1g   1  3d2-        11.957673     1.000000
    2.4 B1g   1  3d2-         0.745011     1.000000
    1.5 B1u   1  2pz         71.845693     0.014239    0.004145
    2.5 B1u                  38.318786     0.103178    0.028800
                             20.437263     0.185184    0.051916
                             10.900182     0.276357    0.084356
                              5.813595     0.318130    0.103303
                              3.100671     0.211494    0.059763
                              1.653738     0.061926   -0.098524
                              0.882019     0.005821   -0.272871
                              0.470423     0.000838   -0.342112
                              0.250899    -0.000047   -0.289317
                              0.133817     0.000077   -0.143329
                              0.071371    -0.000018   -0.032495
    3.5 B1u   1  2pz          4.204774     1.000000
    4.5 B1u   1  2pz          0.205249     1.000000
    1.6 B2g   1  3d1+        11.957673     1.000000
    2.6 B2g   1  3d1+         0.745011     1.000000
    1.7 B3g   1  3d1-        11.957673     1.000000
    2.7 B3g   1  3d1-         0.745011     1.000000

 NUCLEAR CHARGE:                    8
 NUMBER OF PRIMITIVE AOS:          68
 NUMBER OF SYMMETRY AOS:           66
 NUMBER OF CONTRACTIONS:           26   (   8Ag  +   4B3u +   4B2u +   2B1g +   4B1u +   2B2g +   2B3g +   0Au  )
 NUMBER OF CORE ORBITALS:           0   (   0Ag  +   0B3u +   0B2u +   0B1g +   0B1u +   0B2g +   0B3g +   0Au  )
 NUMBER OF VALENCE ORBITALS:        4   (   1Ag  +   1B3u +   1B2u +   0B1g +   1B1u +   0B2g +   0B3g +   0Au  )


 NUCLEAR REPULSION ENERGY    0.00000000

 EXTRA SYMMETRY OF AOS IN SYMMETRY 1:   1 1 1 1 2 3 2 3

 Eigenvalues of metric

         1 0.519E-01 0.154E+00 0.929E+00 0.929E+00 0.107E+01 0.107E+01 0.176E+01 0.203E+01
         2 0.671E-01 0.155E+00 0.173E+01 0.205E+01
         3 0.671E-01 0.155E+00 0.173E+01 0.205E+01
         4 0.929E+00 0.107E+01
         5 0.671E-01 0.155E+00 0.173E+01 0.205E+01
         6 0.929E+00 0.107E+01
         7 0.929E+00 0.107E+01


 Contracted 2-electron integrals neglected if value below      1.0D-12
 AO integral compression algorithm  1   Integral accuracy      1.0D-12

     0.262 MB (compressed) written to integral file (100.0%)


 NUMBER OF SORTED TWO-ELECTRON INTEGRALS:       9924.     BUFFER LENGTH:  32768
 NUMBER OF SEGMENTS:   1  SEGMENT LENGTH:       9924      RECORD LENGTH: 524288

 Memory used in sort:       0.57 MW

 SORT1 READ       22992. AND WROTE        9008. INTEGRALS IN      1 RECORDS. CPU TIME:     0.00 SEC, REAL TIME:     0.01 SEC
 SORT2 READ        9008. AND WROTE        9924. INTEGRALS IN      1 RECORDS. CPU TIME:     0.00 SEC, REAL TIME:     0.01 SEC

 FILE SIZES:   FILE 1:    20.1 MBYTE,  FILE 4:     4.2 MBYTE,   TOTAL:     24.4 MBYTE

 OPERATOR DM      FOR CENTER  0  COORDINATES:    0.000000    0.000000    0.000000
 OPERATOR EKIN    FOR CENTER  0  COORDINATES:    0.000000    0.000000    0.000000
 OPERATOR POT     FOR CENTER  0  COORDINATES:    0.000000    0.000000    0.000000


 **********************************************************************************************************************************
 DATASETS  * FILE   NREC   LENGTH (MB)   RECORD NAMES
              1      20       19.96       500      610      700      900      950      970     1000      129      960     1100   
                                          VAR    BASINP    GEOM    SYMINP    ZMAT    AOBASIS   BASIS     P2S    ABASIS      S 
                                         1400     1410     1420     1200     1210     1080     1600     1650     1300     1700   
                                         EKIN       V       ECP      H0       H01     AOSYM     SMH    MOLCAS    ERIS     OPER   

 PROGRAMS   *        TOTAL       INT
 CPU TIMES  *         0.42      0.29
 REAL TIME  *         3.17 SEC
 DISK USED  *        24.64 MB      
 **********************************************************************************************************************************


 PROGRAM * RHF-SCF (CLOSED SHELL)       Authors: W. Meyer, H.-J. Werner


 NUMBER OF ELECTRONS:       8+    8-    SPACE SYMMETRY=1    SPIN SYMMETRY: Singlet 
 CONVERGENCE THRESHOLDS:    1.00E-05 (Density)    1.00E-07 (Energy)
 MAX. NUMBER OF ITERATIONS:       60
 INTERPOLATION TYPE:            DIIS
 INTERPOLATION STEPS:              2 (START)      1 (STEP)
 LEVEL SHIFTS:                  0.00 (CLOSED)  0.00 (OPEN) 

 Number of closed-shell orbitals:    8 (   2   2   2   0   2   0   0 )



   Atom=AR basis=ECP10MWB_GUESS    lmin=0  lmax=1

 Orbital guess generated from atomic densities. Full valence occupancy:    1   1   1   0   1   0   0   0


 Molecular orbital dump at record        2100.2

 ITERATION    DDIFF          GRAD             ENERGY        2-EL.EN.            DIPOLE MOMENTS         DIIS   ORB.
    1      0.000D+00      0.000D+00      -196.13682618    340.593563    0.00000    0.00000    0.00000    0    start
    2      0.000D+00      0.240D+01      -212.66216260    215.722380    0.00000    0.00000    0.00000    1    diag
    3      0.172D+01      0.616D+00      -214.83901401    256.232950    0.00000    0.00000    0.00000    2    diag
    4      0.566D+00      0.837D-01      -214.89210529    250.412243    0.00000    0.00000    0.00000    3    diag
    5      0.115D+00      0.258D-02      -214.89215755    250.597157    0.00000    0.00000    0.00000    4    diag
    6      0.441D-02      0.472D-03      -214.89215979    250.558838    0.00000    0.00000    0.00000    5    diag
    7      0.751D-03      0.997D-05      -214.89215980    250.559547    0.00000    0.00000    0.00000    6    diag
    8      0.164D-04      0.518D-06      -214.89215980    250.559569    0.00000    0.00000    0.00000    7    diag
    9      0.179D-05      0.437D-07      -214.89215980    250.559566    0.00000    0.00000    0.00000    0    orth

 Final occupancy:   2   2   2   0   2   0   0

 !RHF STATE 1.1 Energy               -214.892159795758
 Nuclear energy                         0.00000000
 One-electron energy                 -340.17194255
 Two-electron energy                  125.27978276
 Virial quotient                       -1.25772642
 !RHF STATE 1.1 Dipole moment           0.00000000     0.00000000     0.00000000
 Dipole moment /Debye                   0.00000000     0.00000000     0.00000000
 

 !RHF expec          <1.1|EKIN|1.1>   170.857633806643
 
 !RHF expec           <1.1|POT|1.1>   -32.547894785982

 ELECTRON ORBITALS
 =================


   Orb  Occ    Energy  Couls-En    Coefficients

                                   1 1s      1 1s      1 1s      1 1s      1 3d0     1 3d2+    1 3d0     1 3d2+ 

   1.1   2   -12.4289  -45.3352  0.999999 -0.000012 -0.000003  0.000013  0.000000 -0.000000 -0.000000 -0.000000

   2.1   2    -1.2868  -13.0100  0.000027  1.000087  0.000004 -0.000097  0.000000 -0.000000  0.000000  0.000000

                                   1 2px     1 2px     1 2px     1 2px  

   1.2   2    -9.7726  -41.4444  1.000001  0.000001 -0.000001 -0.000000

   2.2   2    -0.5909  -10.7379  0.000001 -0.999992 -0.000002  0.000009

                                   1 2py     1 2py     1 2py     1 2py  

   1.3   2    -9.7726  -41.4444  1.000001  0.000001 -0.000001 -0.000000

   2.3   2    -0.5909  -10.7379  0.000001 -0.999992 -0.000002  0.000009

                                   1 2pz     1 2pz     1 2pz     1 2pz  

   1.5   2    -9.7726  -41.4444  1.000001  0.000001 -0.000001 -0.000000

   2.5   2    -0.5909  -10.7379  0.000001 -0.999992 -0.000002  0.000009

 HOMO      2.2    -0.590904 =     -16.0793eV
 LUMO      3.1     0.766762 =      20.8646eV
 LUMO-HOMO         1.357666 =      36.9440eV


 **********************************************************************************************************************************
 DATASETS  * FILE   NREC   LENGTH (MB)   RECORD NAMES
              1      20       19.96       500      610      700      900      950      970     1000      129      960     1100   
                                          VAR    BASINP    GEOM    SYMINP    ZMAT    AOBASIS   BASIS     P2S    ABASIS      S 
                                         1400     1410     1420     1200     1210     1080     1600     1650     1300     1700   
                                         EKIN       V       ECP      H0       H01     AOSYM     SMH    MOLCAS    ERIS     OPER   

              2       4        2.75       700     1000      520     2100   
                                         GEOM     BASIS   MCVARS     RHF  

 PROGRAMS   *        TOTAL        HF       INT
 CPU TIMES  *         0.48      0.06      0.29
 REAL TIME  *         3.43 SEC
 DISK USED  *        24.64 MB      
 **********************************************************************************************************************************
 SETTING SCF(I)         =      -214.89215980  AU                              
 SETTING _CC_NORM_MAX   =         2.00000000                                  


 PROGRAM * CCSD (Restricted open-shell coupled cluster)     Authors: C. Hampel, H.-J. Werner, 1991, M. Deegan, P.J. Knowles, 1992


 Convergence thresholds:  THRVAR = 1.00D-08  THRDEN = 1.00D-06

 CCSD(T)     terms to be evaluated (factor= 1.000)


 Number of closed-shell orbitals:   8 (   2   2   2   0   2   0   0 )
 Number of external orbitals:      18 (   6   2   2   2   2   2   2 )

 Memory could be reduced to 0.33 Mwords without degradation in triples

 Number of N-1 electron functions:              16
 Number of N-2 electron functions:             120
 Number of singly external CSFs:                48
 Number of doubly external CSFs:              4008
 Total number of CSFs:                        4056

 Molecular orbitals read from record     2100.2  Type=RHF/CANONICAL (state 1.1)

 Integral transformation finished. Total CPU:   0.00 sec, npass=  1  Memory used:   0.07 MW

 Starting RMP2 calculation

 Wavefunction is spin-projected

 ITER.      SQ.NORM     CORR.ENERGY   TOTAL ENERGY   ENERGY CHANGE        DEN1      VAR(S)    VAR(P)  DIIS     TIME
   1      1.04505195    -0.33037086  -215.22253066    -0.33037086    -0.00041547  0.31D-17  0.12D-03  1  1     0.01
   2      1.04531094    -0.33080850  -215.22296830    -0.00043764    -0.00000003  0.37D-20  0.70D-08  2  2     0.01
   3      1.04531260    -0.33081096  -215.22297075    -0.00000245    -0.00000000  0.17D-22  0.44D-11  3  3     0.01
   4      1.04531260    -0.33081096  -215.22297075    -0.00000000    -0.00000000  0.28D-25  0.55D-15  4  4     0.01

 Norm of t1 vector:      0.00000002      S-energy:    -0.00000000      T1 diagnostic:  0.00000000
 Norm of t2 vector:      0.21286757      P-energy:    -0.33081096
                                         Alpha-Beta:  -0.23782754
                                         Alpha-Alpha: -0.04649171
                                         Beta-Beta:   -0.04649171

 Spin contamination <S**2-Sz**2-Sz>     0.00000000
  Reference energy                   -214.892159795758
  RHF-RMP2 correlation energy          -0.330810957025
 !RHF-RMP2 energy                    -215.222970752783
 (NB above energy spin projected)

 Starting RCCSD calculation

 ITER.      SQ.NORM     CORR.ENERGY   TOTAL ENERGY   ENERGY CHANGE        DEN1      VAR(S)    VAR(P)  DIIS     TIME
   1      1.04975931    -0.33907436  -215.23123416    -0.33907436    -0.00265174  0.33D-04  0.62D-03  1  1     0.03
   2      1.05160311    -0.34179038  -215.23395018    -0.00271602    -0.00007290  0.58D-06  0.20D-04  2  2     0.04
   3      1.05191524    -0.34213489  -215.23429468    -0.00034451    -0.00000177  0.12D-06  0.38D-06  3  3     0.06
   4      1.05194721    -0.34216557  -215.23432537    -0.00003068    -0.00000004  0.90D-08  0.59D-08  4  4     0.07
   5      1.05194833    -0.34216588  -215.23432567    -0.00000031    -0.00000000  0.44D-09  0.32D-09  5  5     0.09

 Norm of t1 vector:      0.00706433      S-energy:    -0.00000000      T1 diagnostic:  0.00124881
                                                                       D1 diagnostic:  0.00282614
 Norm of t2 vector:      0.22781226      P-energy:    -0.34216588
                                         Alpha-Beta:  -0.25167595
                                         Alpha-Alpha: -0.04524497
                                         Beta-Beta:   -0.04524497

 Spin contamination <S**2-Sz**2-Sz>     0.00000000

 Memory could be reduced to 0.32 Mwords without degradation in triples
 

 RESULTS
 =======

  Reference energy                   -214.892159795758
  RCCSD singles energy                 -0.000000000156
  RCCSD pair energy                    -0.342165875938
  RCCSD correlation energy             -0.342165876095
  Triples (T) contribution             -0.001685823010
  Total correlation energy             -0.343851699105
 
  RHF-RCCSD energy                   -215.234325671853
  RHF-RCCSD[T] energy                -215.236024241426
  RHF-RCCSD-T energy                 -215.236006326266
 !RHF-RCCSD(T) energy                -215.236011494863

 Program statistics:

 Available memory in ccsd:               511999308
 Min. memory needed in ccsd:                 16338
 Max. memory used in ccsd:                   22854
 Max. memory used in cckext:                 67450 ( 5 integral passes)
 Max. memory used in cckint:                 74165 ( 1 integral passes)



 **********************************************************************************************************************************
 DATASETS  * FILE   NREC   LENGTH (MB)   RECORD NAMES
              1      20       19.96       500      610      700      900      950      970     1000      129      960     1100   
                                          VAR    BASINP    GEOM    SYMINP    ZMAT    AOBASIS   BASIS     P2S    ABASIS      S 
                                         1400     1410     1420     1200     1210     1080     1600     1650     1300     1700   
                                         EKIN       V       ECP      H0       H01     AOSYM     SMH    MOLCAS    ERIS     OPER   

              2       4        2.75       700     1000      520     2100   
                                         GEOM     BASIS   MCVARS     RHF  

 PROGRAMS   *        TOTAL  RCCSD(T)        HF       INT
 CPU TIMES  *         0.65      0.17      0.06      0.29
 REAL TIME  *         4.33 SEC
 DISK USED  *        24.64 MB      
 **********************************************************************************************************************************
 SETTING POSTHF(I)      =      -215.23601149  AU                              
                                                                                                                                                                                                                                                                

         SCF            POSTHF        EKIN          POT
    -214.8921598   -215.2360115   170.8576338   -32.54789479
                                                  

 RCCSD(T)/USERDEF energy=   -215.236011494863

        RCCSD(T)        HF-SCF  
   -215.23601149   -214.89215980
 **********************************************************************************************************************************
 Molpro calculation terminated
 Variable memory released
