
 Primary working directories    : /global/cscratch1/sd/aannabe
 Secondary working directories  : /global/cscratch1/sd/aannabe
 Wavefunction directory         : /global/homes/a/aannabe/wfu/
 Main file repository           : /global/cscratch1/sd/aannabe/

 SHA1      : 2873118e99aab1bc19f5b6fc1784693c06d15c95
 NAME      : 2015.1.8
 ARCHNAME  : linux/x86_64
 FC        : /opt/cray/pe/craype/2.5.5/bin/ftn
 BLASLIB   : -Wl,-_start-group /opt/intel/compilers_and_libraries_2016.3.210/linux/mkl/lib/intel64/libmkl_intel_ilp64.a /opt/intel/compilers_and_libraries_2016.3.210/linux/mkl/lib/intel64/libmkl_intel_thread.a /opt/intel/compilers_and_libraries_2016.3.210/linux/mkl/lib/intel64/libmkl_core.a -Wl,-_end-group
 id        : lbl

 Nodes     nprocs
 nid00458     1

 Using customized tuning parameters: mindgm=8; mindgv=16; mindgc=4; mindgr=1; noblas=0; minvec=7
 default implementation of scratch files=df  

 ***,Ti
 memory,512,m
 gthresh,twoint=1.e-12
 
 gprint,basis,orbitals
 gexpec,ekin,pot
 
 angstrom
 geometry={
 1                                                                               ! Number of atoms
 Ti 0.0 0.0 0.0
 }
 
 basis={
 Including file /global/homes/a/aannabe/docs/totals/pps/Ti.pp
 Including file /global/homes/a/aannabe/docs/totals/basis/aug-cc-pVnZ/Ti_qz.basis
 }
 
 {hf
 wf,12,1,2
 occ,4,1,1,0,1,0,0,0
 open,3.1,4.1
 sym,1,1,1,3,2
 }
 scf(i)=energy
 
 _CC_NORM_MAX=2.0
 {uccsd(t)
 maxit,100
 core
 }
 posthf(i)=energy
 
 table,scf,posthf,ekin,pot
 save,4.csv,new
 
 

 Variables initialized (889), CPU time= 0.01 sec
 Commands  initialized (702), CPU time= 0.01 sec, 572 directives.
 Default parameters read. Elapsed time= 0.16 sec

 Checking input...
 Passed
1


                                         ***  PROGRAM SYSTEM MOLPRO  ***
                                       Copyright, TTI GmbH Stuttgart, 2015
                                    Version 2015.1 linked Sep  7 2016 23:09:38


 **********************************************************************************************************************************
 LABEL *   Ti                                                                            
  64 bit serial version                                                                  DATE: 12-Jun-18          TIME: 14:02:21  
 **********************************************************************************************************************************

 SHA1:             2873118e99aab1bc19f5b6fc1784693c06d15c95
 **********************************************************************************************************************************

 THRESHOLDS:

 ZERO    =  1.00D-12  ONEINT  =  1.00D-12  TWOINT  =  1.00D-12  PREFAC  =  1.00D-14  LOCALI  =  1.00D-09  EORDER  =  1.00D-04
 ENERGY  =  0.00D+00  ETEST   =  0.00D+00  EDENS   =  0.00D+00  THRDEDEF=  1.00D-06  GRADIENT=  1.00D-02  STEP    =  1.00D-03
 ORBITAL =  1.00D-05  CIVEC   =  1.00D-05  COEFF   =  1.00D-04  PRINTCI =  5.00D-02  PUNCHCI =  9.90D+01  OPTGRAD =  3.00D-04
 OPTENERG=  1.00D-06  OPTSTEP =  3.00D-04  THRGRAD =  1.00D-10  COMPRESS=  1.00D-11  VARMIN  =  1.00D-07  VARMAX  =  1.00D-03
 THRDOUB =  0.00D+00  THRDIV  =  1.00D-05  THRRED  =  1.00D-07  THRPSP  =  1.00D+00  THRDC   =  1.00D-10  THRCS   =  1.00D-10
 THRNRM  =  1.00D-08  THREQ   =  0.00D+00  THRDE   =  1.00D+00  THRREF  =  1.00D-05  SPARFAC =  1.00D+00  THRDLP  =  1.00D-07
 THRDIA  =  1.00D-10  THRDLS  =  1.00D-07  THRGPS  =  0.00D+00  THRKEX  =  0.00D+00  THRDIS  =  2.00D-01  THRVAR  =  1.00D-10
 THRLOC  =  1.00D-06  THRGAP  =  1.00D-06  THRLOCT = -1.00D+00  THRGAPT = -1.00D+00  THRORB  =  1.00D-06  THRMLTP =  0.00D+00
 THRCPQCI=  1.00D-10  KEXTA   =  0.00D+00  THRCOARS=  0.00D+00  SYMTOL  =  1.00D-06  GRADTOL =  1.00D-06  THROVL  =  1.00D-08
 THRORTH =  1.00D-08  GRID    =  1.00D-06  GRIDMAX =  1.00D-03  DTMAX   =  0.00D+00  THROCCDE=  1.00D-01  THROCCDE=  1.00D-01



 ZUNIT=ANG
 

Geometry recognized as XYZ


 Variable memory set to  512000000 words,  buffer space   230000 words

 SETTING BASIS          =    USERDEF


 Recomputing integrals since basis changed


 Using spherical harmonics



 PROGRAM * SEWARD (Integral evaluation for generally contracted gaussian basis sets)     Author: Roland Lindh, 1990

 Geometry written to block  1 of record 700

 Orientation using atomic masses  
 Molecule type: Atom
 Symmetry elements: X,Y,Z
 Rotational constants:       0.0000000      0.0000000      0.0000000 GHz  (calculated with average atomic masses)

 Point group  D2h 



 ATOMIC COORDINATES

 NR  ATOM    CHARGE       X              Y              Z

   1  TI     12.00    0.000000000    0.000000000    0.000000000


          TI  CORE POTENTIAL

          d POTENTIAL

 POWERS             1              3              2              2
 EXPONENTIALS   18.41366       15.92292       13.65001       5.095552    
 COEFFICIENTS   12.00000       220.9639      -94.29026      9.7911425E-02

          s - d POTENTIAL

 POWERS             2              2
 EXPONENTIALS   12.70581       6.111786    
 COEFFICIENTS   173.9466       18.83768    

          p - d POTENTIAL

 POWERS             2              2
 EXPONENTIALS   12.64092       5.354374    
 COEFFICIENTS   111.4567       11.17703    


 BASIS DATA

   Nr Sym  Nuc  Type         Exponents   Contraction coefficients

    1.1 Ag    1  1s          68.910511     0.000616   -0.000156    0.000635   -0.001178    0.000115    0.000000
    2.1 Ag                   33.720700    -0.007501    0.001966   -0.006468    0.011877    0.002833    0.000000
    3.1 Ag                   18.159676     0.012218   -0.003994    0.023444   -0.047240    0.006141    0.000000
    4.1 Ag                   12.419305     0.144739   -0.036377    0.038921   -0.050922   -0.209682    0.000000
    5.1 Ag                    7.532195    -0.328621    0.088593   -0.141180    0.237746    0.518367    0.000000
    6.1 Ag                    3.504444    -0.317517    0.085630   -0.214765    0.403185    0.304164    0.000000
                              1.910727     0.357422   -0.105993    0.320151   -0.790961   -1.232863    0.000000
                              0.888840     0.671406   -0.237421    0.451062   -1.102276   -2.090508    0.000000
                              0.447198     0.282226   -0.235359    0.855191    0.209446    7.092715    0.000000
                              0.281192     0.038673   -0.012960   -1.209224    2.527352   -4.543744    0.000000
                              0.100258     0.004559    0.433582   -1.319481   -1.789041   -2.248270    0.000000
                              0.046525    -0.001565    0.577873    0.866517   -0.867842    4.473918    0.000000
                              0.021840     0.000398    0.164360    0.618916    1.427395   -2.426296    1.000000
    7.1 Ag    1  1s           0.010000     1.000000
    8.1 Ag    1  3d0         77.434559     0.000022
                             27.708477     0.004218
                             12.914284     0.030087
                              6.062674     0.084821
                              2.863898     0.171110
                              1.386559     0.247451
                              0.677058     0.277310
                              0.329864     0.261077
                              0.159474     0.190336
                              0.076174     0.119385
                              0.028570     0.031297
    9.1 Ag    1  3d2+        77.434559     0.000022
                             27.708477     0.004218
                             12.914284     0.030087
                              6.062674     0.084821
                              2.863898     0.171110
                              1.386559     0.247451
                              0.677058     0.277310
                              0.329864     0.261077
                              0.159474     0.190336
                              0.076174     0.119385
                              0.028570     0.031297
   10.1 Ag    1  3d0         77.434559    -0.000025
                             27.708477    -0.004311
                             12.914284    -0.030913
                              6.062674    -0.088049
                              2.863898    -0.178330
                              1.386559    -0.234335
                              0.677058    -0.195775
                              0.329864     0.065872
                              0.159474     0.330536
                              0.076174     0.461229
                              0.028570     0.184273
   11.1 Ag    1  3d2+        77.434559    -0.000025
                             27.708477    -0.004311
                             12.914284    -0.030913
                              6.062674    -0.088049
                              2.863898    -0.178330
                              1.386559    -0.234335
                              0.677058    -0.195775
                              0.329864     0.065872
                              0.159474     0.330536
                              0.076174     0.461229
                              0.028570     0.184273
   12.1 Ag    1  3d0         77.434559     0.000010
                             27.708477     0.006187
                             12.914284     0.042630
                              6.062674     0.127524
                              2.863898     0.248289
                              1.386559     0.259761
                              0.677058    -0.070794
                              0.329864    -0.519396
                              0.159474    -0.373658
                              0.076174     0.455067
                              0.028570     0.489586
   13.1 Ag    1  3d2+        77.434559     0.000010
                             27.708477     0.006187
                             12.914284     0.042630
                              6.062674     0.127524
                              2.863898     0.248289
                              1.386559     0.259761
                              0.677058    -0.070794
                              0.329864    -0.519396
                              0.159474    -0.373658
                              0.076174     0.455067
                              0.028570     0.489586
   14.1 Ag    1  3d0         77.434559     0.000011
                             27.708477    -0.008026
                             12.914284    -0.053875
                              6.062674    -0.168795
                              2.863898    -0.312344
                              1.386559    -0.172031
                              0.677058     0.587633
                              0.329864     0.528592
                              0.159474    -0.859644
                              0.076174    -0.273831
                              0.028570     0.802754
   15.1 Ag    1  3d2+        77.434559     0.000011
                             27.708477    -0.008026
                             12.914284    -0.053875
                              6.062674    -0.168795
                              2.863898    -0.312344
                              1.386559    -0.172031
                              0.677058     0.587633
                              0.329864     0.528592
                              0.159474    -0.859644
                              0.076174    -0.273831
                              0.028570     0.802754
   16.1 Ag    1  3d0         77.434559     0.000000
                             27.708477     0.000000
                             12.914284     0.000000
                              6.062674     0.000000
                              2.863898     0.000000
                              1.386559     0.000000
                              0.677058     0.000000
                              0.329864     0.000000
                              0.159474     0.000000
                              0.076174     0.000000
                              0.028570     1.000000
   17.1 Ag    1  3d2+        77.434559     0.000000
                             27.708477     0.000000
                             12.914284     0.000000
                              6.062674     0.000000
                              2.863898     0.000000
                              1.386559     0.000000
                              0.677058     0.000000
                              0.329864     0.000000
                              0.159474     0.000000
                              0.076174     0.000000
                              0.028570     1.000000
   18.1 Ag    1  3d0          0.014000     1.000000
   19.1 Ag    1  3d2+         0.014000     1.000000
   20.1 Ag    1  5g0          0.101467     1.000000
   21.1 Ag    1  5g4+         0.101467     1.000000
   22.1 Ag    1  5g2+         0.101467     1.000000
   23.1 Ag    1  5g0          0.402576     1.000000
   24.1 Ag    1  5g4+         0.402576     1.000000
   25.1 Ag    1  5g2+         0.402576     1.000000
   26.1 Ag    1  5g0          1.597247     1.000000
   27.1 Ag    1  5g4+         1.597247     1.000000
   28.1 Ag    1  5g2+         1.597247     1.000000
    1.2 B3u   1  2px         84.914002     0.000093    0.000020    0.000019   -0.000257    0.000271    0.000000
    2.2 B3u                  42.855051    -0.000836   -0.000049    0.000138    0.001725   -0.001902    0.000000
    3.2 B3u                  21.700131     0.008679   -0.000761   -0.004622   -0.012646    0.015412    0.000000
    4.2 B3u                  12.214690    -0.011178   -0.000575    0.004465    0.029062   -0.037586    0.000000
    5.2 B3u                   8.319164    -0.077767    0.018284    0.065760    0.058979   -0.124536    0.000000
    6.2 B3u                   4.091071    -0.006113   -0.005943   -0.018927    0.030806    0.040812    0.000000
                              2.286543     0.271828   -0.043212   -0.222524   -0.524373    1.343823    0.000000
                              1.159810     0.459585   -0.112513   -0.523890   -0.720968   -0.269411    0.000000
                              0.591343     0.315900   -0.052073   -0.071277    1.023204   -3.729590    0.000000
                              0.312862     0.071683   -0.092263    0.812712    1.973874    5.884983    0.000000
                              0.184828     0.010541    0.243946    0.625498   -2.805092   -3.113853    0.000000
                              0.068590     0.000045    0.413101   -0.812189    0.607954   -0.256973    0.000000
                              0.026791    -0.000837    0.543985   -0.185796    0.447653    0.710733    1.000000
    7.2 B3u   1  2px          0.013000     1.000000
    8.2 B3u   1  4f1+         0.055499     1.000000
    9.2 B3u   1  4f3+         0.055499     1.000000
   10.2 B3u   1  4f1+         0.193613     1.000000
   11.2 B3u   1  4f3+         0.193613     1.000000
   12.2 B3u   1  4f1+         0.675430     1.000000
   13.2 B3u   1  4f3+         0.675430     1.000000
   14.2 B3u   1  4f1+         2.356279     1.000000
   15.2 B3u   1  4f3+         2.356279     1.000000
   16.2 B3u   1  6h1+         0.316183     1.000000
   17.2 B3u   1  6h3+         0.316183     1.000000
   18.2 B3u   1  6h5+         0.316183     1.000000
   19.2 B3u   1  6h1+         0.848174     1.000000
   20.2 B3u   1  6h3+         0.848174     1.000000
   21.2 B3u   1  6h5+         0.848174     1.000000
    1.3 B2u   1  2py         84.914002     0.000093    0.000020    0.000019   -0.000257    0.000271    0.000000
    2.3 B2u                  42.855051    -0.000836   -0.000049    0.000138    0.001725   -0.001902    0.000000
    3.3 B2u                  21.700131     0.008679   -0.000761   -0.004622   -0.012646    0.015412    0.000000
    4.3 B2u                  12.214690    -0.011178   -0.000575    0.004465    0.029062   -0.037586    0.000000
    5.3 B2u                   8.319164    -0.077767    0.018284    0.065760    0.058979   -0.124536    0.000000
    6.3 B2u                   4.091071    -0.006113   -0.005943   -0.018927    0.030806    0.040812    0.000000
                              2.286543     0.271828   -0.043212   -0.222524   -0.524373    1.343823    0.000000
                              1.159810     0.459585   -0.112513   -0.523890   -0.720968   -0.269411    0.000000
                              0.591343     0.315900   -0.052073   -0.071277    1.023204   -3.729590    0.000000
                              0.312862     0.071683   -0.092263    0.812712    1.973874    5.884983    0.000000
                              0.184828     0.010541    0.243946    0.625498   -2.805092   -3.113853    0.000000
                              0.068590     0.000045    0.413101   -0.812189    0.607954   -0.256973    0.000000
                              0.026791    -0.000837    0.543985   -0.185796    0.447653    0.710733    1.000000
    7.3 B2u   1  2py          0.013000     1.000000
    8.3 B2u   1  4f1-         0.055499     1.000000
    9.3 B2u   1  4f3-         0.055499     1.000000
   10.3 B2u   1  4f1-         0.193613     1.000000
   11.3 B2u   1  4f3-         0.193613     1.000000
   12.3 B2u   1  4f1-         0.675430     1.000000
   13.3 B2u   1  4f3-         0.675430     1.000000
   14.3 B2u   1  4f1-         2.356279     1.000000
   15.3 B2u   1  4f3-         2.356279     1.000000
   16.3 B2u   1  6h1-         0.316183     1.000000
   17.3 B2u   1  6h3-         0.316183     1.000000
   18.3 B2u   1  6h5-         0.316183     1.000000
   19.3 B2u   1  6h1-         0.848174     1.000000
   20.3 B2u   1  6h3-         0.848174     1.000000
   21.3 B2u   1  6h5-         0.848174     1.000000
    1.4 B1g   1  3d2-        77.434559     0.000022   -0.000025    0.000010    0.000011    0.000000
    2.4 B1g                  27.708477     0.004218   -0.004311    0.006187   -0.008026    0.000000
    3.4 B1g                  12.914284     0.030087   -0.030913    0.042630   -0.053875    0.000000
    4.4 B1g                   6.062674     0.084821   -0.088049    0.127524   -0.168795    0.000000
    5.4 B1g                   2.863898     0.171110   -0.178330    0.248289   -0.312344    0.000000
                              1.386559     0.247451   -0.234335    0.259761   -0.172031    0.000000
                              0.677058     0.277310   -0.195775   -0.070794    0.587633    0.000000
                              0.329864     0.261077    0.065872   -0.519396    0.528592    0.000000
                              0.159474     0.190336    0.330536   -0.373658   -0.859644    0.000000
                              0.076174     0.119385    0.461229    0.455067   -0.273831    0.000000
                              0.028570     0.031297    0.184273    0.489586    0.802754    1.000000
    6.4 B1g   1  3d2-         0.014000     1.000000
    7.4 B1g   1  5g2-         0.101467     1.000000
    8.4 B1g   1  5g4-         0.101467     1.000000
    9.4 B1g   1  5g2-         0.402576     1.000000
   10.4 B1g   1  5g4-         0.402576     1.000000
   11.4 B1g   1  5g2-         1.597247     1.000000
   12.4 B1g   1  5g4-         1.597247     1.000000
    1.5 B1u   1  2pz         84.914002     0.000093    0.000020    0.000019   -0.000257    0.000271    0.000000
    2.5 B1u                  42.855051    -0.000836   -0.000049    0.000138    0.001725   -0.001902    0.000000
    3.5 B1u                  21.700131     0.008679   -0.000761   -0.004622   -0.012646    0.015412    0.000000
    4.5 B1u                  12.214690    -0.011178   -0.000575    0.004465    0.029062   -0.037586    0.000000
    5.5 B1u                   8.319164    -0.077767    0.018284    0.065760    0.058979   -0.124536    0.000000
    6.5 B1u                   4.091071    -0.006113   -0.005943   -0.018927    0.030806    0.040812    0.000000
                              2.286543     0.271828   -0.043212   -0.222524   -0.524373    1.343823    0.000000
                              1.159810     0.459585   -0.112513   -0.523890   -0.720968   -0.269411    0.000000
                              0.591343     0.315900   -0.052073   -0.071277    1.023204   -3.729590    0.000000
                              0.312862     0.071683   -0.092263    0.812712    1.973874    5.884983    0.000000
                              0.184828     0.010541    0.243946    0.625498   -2.805092   -3.113853    0.000000
                              0.068590     0.000045    0.413101   -0.812189    0.607954   -0.256973    0.000000
                              0.026791    -0.000837    0.543985   -0.185796    0.447653    0.710733    1.000000
    7.5 B1u   1  2pz          0.013000     1.000000
    8.5 B1u   1  4f0          0.055499     1.000000
    9.5 B1u   1  4f2+         0.055499     1.000000
   10.5 B1u   1  4f0          0.193613     1.000000
   11.5 B1u   1  4f2+         0.193613     1.000000
   12.5 B1u   1  4f0          0.675430     1.000000
   13.5 B1u   1  4f2+         0.675430     1.000000
   14.5 B1u   1  4f0          2.356279     1.000000
   15.5 B1u   1  4f2+         2.356279     1.000000
   16.5 B1u   1  6h2+         0.316183     1.000000
   17.5 B1u   1  6h4+         0.316183     1.000000
   18.5 B1u   1  6h0          0.316183     1.000000
   19.5 B1u   1  6h2+         0.848174     1.000000
   20.5 B1u   1  6h4+         0.848174     1.000000
   21.5 B1u   1  6h0          0.848174     1.000000
    1.6 B2g   1  3d1+        77.434559     0.000022   -0.000025    0.000010    0.000011    0.000000
    2.6 B2g                  27.708477     0.004218   -0.004311    0.006187   -0.008026    0.000000
    3.6 B2g                  12.914284     0.030087   -0.030913    0.042630   -0.053875    0.000000
    4.6 B2g                   6.062674     0.084821   -0.088049    0.127524   -0.168795    0.000000
    5.6 B2g                   2.863898     0.171110   -0.178330    0.248289   -0.312344    0.000000
                              1.386559     0.247451   -0.234335    0.259761   -0.172031    0.000000
                              0.677058     0.277310   -0.195775   -0.070794    0.587633    0.000000
                              0.329864     0.261077    0.065872   -0.519396    0.528592    0.000000
                              0.159474     0.190336    0.330536   -0.373658   -0.859644    0.000000
                              0.076174     0.119385    0.461229    0.455067   -0.273831    0.000000
                              0.028570     0.031297    0.184273    0.489586    0.802754    1.000000
    6.6 B2g   1  3d1+         0.014000     1.000000
    7.6 B2g   1  5g1+         0.101467     1.000000
    8.6 B2g   1  5g3+         0.101467     1.000000
    9.6 B2g   1  5g1+         0.402576     1.000000
   10.6 B2g   1  5g3+         0.402576     1.000000
   11.6 B2g   1  5g1+         1.597247     1.000000
   12.6 B2g   1  5g3+         1.597247     1.000000
    1.7 B3g   1  3d1-        77.434559     0.000022   -0.000025    0.000010    0.000011    0.000000
    2.7 B3g                  27.708477     0.004218   -0.004311    0.006187   -0.008026    0.000000
    3.7 B3g                  12.914284     0.030087   -0.030913    0.042630   -0.053875    0.000000
    4.7 B3g                   6.062674     0.084821   -0.088049    0.127524   -0.168795    0.000000
    5.7 B3g                   2.863898     0.171110   -0.178330    0.248289   -0.312344    0.000000
                              1.386559     0.247451   -0.234335    0.259761   -0.172031    0.000000
                              0.677058     0.277310   -0.195775   -0.070794    0.587633    0.000000
                              0.329864     0.261077    0.065872   -0.519396    0.528592    0.000000
                              0.159474     0.190336    0.330536   -0.373658   -0.859644    0.000000
                              0.076174     0.119385    0.461229    0.455067   -0.273831    0.000000
                              0.028570     0.031297    0.184273    0.489586    0.802754    1.000000
    6.7 B3g   1  3d1-         0.014000     1.000000
    7.7 B3g   1  5g1-         0.101467     1.000000
    8.7 B3g   1  5g3-         0.101467     1.000000
    9.7 B3g   1  5g1-         0.402576     1.000000
   10.7 B3g   1  5g3-         0.402576     1.000000
   11.7 B3g   1  5g1-         1.597247     1.000000
   12.7 B3g   1  5g3-         1.597247     1.000000
    1.8 Au    1  4f2-         0.055499     1.000000
    2.8 Au    1  4f2-         0.193613     1.000000
    3.8 Au    1  4f2-         0.675430     1.000000
    4.8 Au    1  4f2-         2.356279     1.000000
    5.8 Au    1  6h4-         0.316183     1.000000
    6.8 Au    1  6h2-         0.316183     1.000000
    7.8 Au    1  6h4-         0.848174     1.000000
    8.8 Au    1  6h2-         0.848174     1.000000

 NUCLEAR CHARGE:                   12
 NUMBER OF PRIMITIVE AOS:         255
 NUMBER OF SYMMETRY AOS:          193
 NUMBER OF CONTRACTIONS:          135   (  28Ag  +  21B3u +  21B2u +  12B1g +  21B1u +  12B2g +  12B3g +   8Au  )
 NUMBER OF CORE ORBITALS:           4   (   1Ag  +   1B3u +   1B2u +   0B1g +   1B1u +   0B2g +   0B3g +   0Au  )
 NUMBER OF VALENCE ORBITALS:        6   (   3Ag  +   0B3u +   0B2u +   1B1g +   0B1u +   1B2g +   1B3g +   0Au  )


 NUCLEAR REPULSION ENERGY    0.00000000

 EXTRA SYMMETRY OF AOS IN SYMMETRY 1:   1 1 1 1 1 1 1 2 3 2   3 2 3 2 3 2 3 2 3 4   5 6 4 5 6 4 5 6
 EXTRA SYMMETRY OF AOS IN SYMMETRY 2:   1 1 1 1 1 1 1 2 3 2   3 2 3 2 3 4 5 6 4 5   6
 EXTRA SYMMETRY OF AOS IN SYMMETRY 3:   1 1 1 1 1 1 1 2 3 2   3 2 3 2 3 4 5 6 4 5   6
 EXTRA SYMMETRY OF AOS IN SYMMETRY 4:   1 1 1 1 1 1 2 3 2 3   2 3
 EXTRA SYMMETRY OF AOS IN SYMMETRY 5:   1 1 1 1 1 1 1 2 3 2   3 2 3 2 3 4 5 6 4 5   6
 EXTRA SYMMETRY OF AOS IN SYMMETRY 6:   1 1 1 1 1 1 2 3 2 3   2 3
 EXTRA SYMMETRY OF AOS IN SYMMETRY 7:   1 1 1 1 1 1 2 3 2 3   2 3
 EXTRA SYMMETRY OF AOS IN SYMMETRY 8:   1 1 1 1 2 3 2 3

 Eigenvalues of metric

         1 0.371E-03 0.134E-01 0.134E-01 0.601E-01 0.265E+00 0.265E+00 0.588E+00 0.588E+00
         2 0.793E-02 0.228E+00 0.341E+00 0.341E+00 0.533E+00 0.533E+00 0.533E+00 0.680E+00
         3 0.793E-02 0.228E+00 0.341E+00 0.341E+00 0.533E+00 0.533E+00 0.533E+00 0.680E+00
         4 0.134E-01 0.265E+00 0.588E+00 0.588E+00 0.983E+00 0.984E+00 0.984E+00 0.101E+01
         5 0.793E-02 0.228E+00 0.341E+00 0.341E+00 0.533E+00 0.533E+00 0.533E+00 0.680E+00
         6 0.134E-01 0.265E+00 0.588E+00 0.588E+00 0.983E+00 0.984E+00 0.984E+00 0.101E+01
         7 0.134E-01 0.265E+00 0.588E+00 0.588E+00 0.983E+00 0.984E+00 0.984E+00 0.101E+01
         8 0.341E+00 0.533E+00 0.533E+00 0.681E+00 0.122E+01 0.147E+01 0.147E+01 0.176E+01


 Contracted 2-electron integrals neglected if value below      1.0D-12
 AO integral compression algorithm  1   Integral accuracy      1.0D-12

     32.768 MB (compressed) written to integral file ( 45.0%)


 NUMBER OF SORTED TWO-ELECTRON INTEGRALS:    5465755.     BUFFER LENGTH:  32768
 NUMBER OF SEGMENTS:   1  SEGMENT LENGTH:    5465755      RECORD LENGTH: 524288

 Memory used in sort:       6.02 MW

 SORT1 READ     9044109. AND WROTE     3825599. INTEGRALS IN     11 RECORDS. CPU TIME:     0.30 SEC, REAL TIME:     0.41 SEC
 SORT2 READ     3825599. AND WROTE     5465755. INTEGRALS IN    125 RECORDS. CPU TIME:     0.30 SEC, REAL TIME:     0.38 SEC

 FILE SIZES:   FILE 1:    52.3 MBYTE,  FILE 4:    46.2 MBYTE,   TOTAL:     98.5 MBYTE

 OPERATOR DM      FOR CENTER  0  COORDINATES:    0.000000    0.000000    0.000000
 OPERATOR EKIN    FOR CENTER  0  COORDINATES:    0.000000    0.000000    0.000000
 OPERATOR POT     FOR CENTER  0  COORDINATES:    0.000000    0.000000    0.000000


 **********************************************************************************************************************************
 DATASETS  * FILE   NREC   LENGTH (MB)   RECORD NAMES
              1      20       39.16       500      610      700      900      950      970     1000      129      960     1100   
                                          VAR    BASINP    GEOM    SYMINP    ZMAT    AOBASIS   BASIS     P2S    ABASIS      S 
                                         1400     1410     1420     1200     1210     1080     1600     1650     1300     1700   
                                         EKIN       V       ECP      H0       H01     AOSYM     SMH    MOLCAS    ERIS     OPER   

 PROGRAMS   *        TOTAL       INT
 CPU TIMES  *         4.17      4.06
 REAL TIME  *         9.59 SEC
 DISK USED  *        98.79 MB      
 **********************************************************************************************************************************


 PROGRAM * RHF-SCF (OPEN SHELL)       Authors: W. Meyer, H.-J. Werner


 NUMBER OF ELECTRONS:       7+    5-    SPACE SYMMETRY=1    SPIN SYMMETRY: Triplet 
 CONVERGENCE THRESHOLDS:    1.00E-05 (Density)    1.00E-07 (Energy)
 MAX. NUMBER OF ITERATIONS:       60
 INTERPOLATION TYPE:            DIIS
 INTERPOLATION STEPS:              2 (START)      1 (STEP)
 LEVEL SHIFTS:                 -0.60 (CLOSED) -0.30 (OPEN) 


 Singly occupied orbitals:      3.1       4.1
 
 Extra symmetries of mos in symmetry 1:   1   1   3   2

   Atom=TI basis=ECP10MDF_GUESS    lmin=0  lmax=2

 Orbital guess generated from atomic densities. Full valence occupancy:    4   1   1   1   1   1   1   0


 Molecular orbital dump at record        2100.2

 ITERATION    DDIFF          GRAD             ENERGY        2-EL.EN.            DIPOLE MOMENTS         DIIS   ORB.
    1      0.000D+00      0.000D+00       -56.50583495     59.181440    0.00000    0.00000    0.00000    0    start
    2      0.000D+00      0.389D-01       -57.44103177     83.338656    0.00000    0.00000    0.00000    1    diag,B
    3      0.735D-01      0.370D-01       -57.55368013     81.261950    0.00000    0.00000    0.00000    2    diag,B
    4      0.527D-02      0.168D-01       -57.59583410     80.069839    0.00000    0.00000    0.00000    3    diag,B
    5      0.564D-02      0.573D-02       -57.60768367     79.475718    0.00000    0.00000    0.00000    4    diag,B
    6      0.459D-02      0.144D-02       -57.60915778     79.374296    0.00000    0.00000    0.00000    5    diag,B
    7      0.191D-02      0.939D-03       -57.60959363     79.231124    0.00000    0.00000    0.00000    6    fixocc
    8      0.140D-02      0.307D-03       -57.60965504     79.185930    0.00000    0.00000    0.00000    7    diag,B
    9      0.441D-03      0.154D-03       -57.60966924     79.139394    0.00000    0.00000    0.00000    8    diag,B
   10      0.271D-03      0.692D-04       -57.60967191     79.145605    0.00000    0.00000    0.00000    9    orth
   11      0.248D-03      0.230D-04       -57.60967279     79.141672    0.00000    0.00000    0.00000    9    diag,B
   12      0.193D-03      0.750D-05       -57.60967286     79.142734    0.00000    0.00000    0.00000    9    diag,B
   13      0.581D-04      0.270D-05       -57.60967287     79.142419    0.00000    0.00000    0.00000    9    diag,B
   14      0.105D-04      0.773D-06       -57.60967287     79.142628    0.00000    0.00000    0.00000    9    diag,B
   15      0.156D-05      0.903D-07       -57.60967287     79.142627    0.00000    0.00000    0.00000    0    orth

 Final alpha occupancy:   4   1   1   0   1   0   0   0
 Final beta  occupancy:   2   1   1   0   1   0   0   0

 !RHF STATE 1.1 Energy                -57.609672867428
 Nuclear energy                         0.00000000
 One-electron energy                  -97.18098658
 Two-electron energy                   39.57131371
 Virial quotient                       -2.22716361
 !RHF STATE 1.1 Dipole moment           0.00000000     0.00000000     0.00000000
 Dipole moment /Debye                   0.00000000     0.00000000     0.00000000
 

 !RHF expec          <1.1|EKIN|1.1>    25.866834613233
 
 !RHF expec           <1.1|POT|1.1>   -10.953918945788

 ELECTRON ORBITALS
 =================


   Orb  Occ    Energy  Couls-En    Coefficients

                                   1 1s      1 1s      1 1s      1 1s      1 1s      1 1s      1 1s      1 3d0     1 3d2+    1 3d0  
                                   1 3d2+    1 3d0     1 3d2+    1 3d0     1 3d2+    1 3d0     1 3d2+    1 3d0     1 3d2+    1 5g0  
                                   1 5g4+    1 5g2+    1 5g0     1 5g4+    1 5g2+    1 5g0     1 5g4+    1 5g2+ 

   1.1   2    -2.9280  -13.2772  0.999943  0.000012 -0.000364  0.000206  0.000114  0.000329 -0.000104 -0.000000  0.000000 -0.000000
                                -0.000000 -0.000000  0.000000 -0.000000  0.000000  0.000000 -0.000000 -0.000000  0.000000 -0.000048
                                -0.000041 -0.000000  0.000964  0.000814  0.000000  0.000875  0.000739 -0.000000

   2.1   2    -0.2217   -3.7506 -0.000239  1.000001  0.002246  0.000075 -0.000041 -0.000109  0.000160 -0.000000  0.000000  0.000000
                                -0.000000  0.000000 -0.000000  0.000000 -0.000000 -0.000000  0.000000  0.000000 -0.000000 -0.000353
                                -0.000298  0.000000 -0.000230 -0.000194 -0.000000  0.000285  0.000241 -0.000000

   3.1   +    -0.4404   -7.5130  0.000000  0.000000  0.000000  0.000000 -0.000000 -0.000000  0.000000 -0.038558  0.988639  0.006243
                                -0.160079  0.000489 -0.012544 -0.000130  0.003332 -0.000142  0.003646  0.000006 -0.000141 -0.000016
                                 0.000019 -0.000628 -0.000116  0.000137 -0.004588 -0.000090  0.000106 -0.003564

   4.1   +    -0.4404   -7.5130 -0.000000 -0.000000 -0.000000 -0.000000  0.000000  0.000000 -0.000000  0.988639  0.038558 -0.160079
                                -0.006243 -0.012544 -0.000489  0.003332  0.000130  0.003646  0.000142 -0.000141 -0.000006  0.000406
                                -0.000480 -0.000025  0.002962 -0.003504 -0.000179  0.002301 -0.002722 -0.000139

                                   1 2px     1 2px     1 2px     1 2px     1 2px     1 2px     1 2px     1 4f1+    1 4f3+    1 4f1+ 
                                   1 4f3+    1 4f1+    1 4f3+    1 4f1+    1 4f3+    1 6h1+    1 6h3+    1 6h5+    1 6h1+    1 6h3+ 
                                   1 6h5+ 

   1.2   2    -1.8097  -11.0229  1.002344  0.052053  0.031050  0.010592 -0.001408 -0.026085  0.000266  0.000093 -0.000120 -0.001259
                                 0.001625 -0.004125  0.005325 -0.002406  0.003106  0.000172 -0.000037  0.000183 -0.000220  0.000018
                                -0.000220

                                   1 2py     1 2py     1 2py     1 2py     1 2py     1 2py     1 2py     1 4f1-    1 4f3-    1 4f1- 
                                   1 4f3-    1 4f1-    1 4f3-    1 4f1-    1 4f3-    1 6h1-    1 6h3-    1 6h5-    1 6h1-    1 6h3- 
                                   1 6h5- 

   1.3   2    -1.8097  -11.0229  1.002344  0.052053  0.031050  0.010592 -0.001408 -0.026085  0.000266  0.000093  0.000120 -0.001259
                                -0.001625 -0.004125 -0.005325 -0.002406 -0.003106  0.000172  0.000037  0.000183 -0.000220 -0.000018
                                -0.000220

                                   1 2pz     1 2pz     1 2pz     1 2pz     1 2pz     1 2pz     1 2pz     1 4f0     1 4f2+    1 4f0  
                                   1 4f2+    1 4f0     1 4f2+    1 4f0     1 4f2+    1 6h2+    1 6h4+    1 6h0     1 6h2+    1 6h4+ 
                                   1 6h0  

   1.5   2    -1.8097  -11.0229  1.002344  0.052053  0.031050  0.010592 -0.001408 -0.026085  0.000266 -0.000152  0.000000  0.002056
                                 0.000000  0.006736  0.000000  0.003929 -0.000000 -0.000000  0.000106  0.000231  0.000000 -0.000156
                                -0.000270

 HOMO      4.1    -0.440446 =     -11.9851eV
 LUMO      2.2     0.014970 =       0.4074eV
 LUMO-HOMO         0.455416 =      12.3925eV


 **********************************************************************************************************************************
 DATASETS  * FILE   NREC   LENGTH (MB)   RECORD NAMES
              1      20       39.16       500      610      700      900      950      970     1000      129      960     1100   
                                          VAR    BASINP    GEOM    SYMINP    ZMAT    AOBASIS   BASIS     P2S    ABASIS      S 
                                         1400     1410     1420     1200     1210     1080     1600     1650     1300     1700   
                                         EKIN       V       ECP      H0       H01     AOSYM     SMH    MOLCAS    ERIS     OPER   

              2       4        2.85       700     1000      520     2100   
                                         GEOM     BASIS   MCVARS     RHF  

 PROGRAMS   *        TOTAL        HF       INT
 CPU TIMES  *         4.54      0.37      4.06
 REAL TIME  *        17.56 SEC
 DISK USED  *        98.79 MB      
 **********************************************************************************************************************************
 SETTING SCF(I)         =       -57.60967287  AU                              
 SETTING _CC_NORM_MAX   =         2.00000000                                  


 PROGRAM * CCSD (Unrestricted open-shell coupled cluster)     Authors: C. Hampel, H.-J. Werner, 1991, M. Deegan, P.J. Knowles, 1992


 Convergence thresholds:  THRVAR = 1.00D-08  THRDEN = 1.00D-06

 CCSD(T)     terms to be evaluated (factor= 1.000)


 Number of closed-shell orbitals:   5 (   2   1   1   0   1   0   0   0 )
 Number of active  orbitals:        2 (   2   0   0   0   0   0   0   0 )
 Number of external orbitals:     128 (  24  20  20  12  20  12  12   8 )

 Memory could be reduced to 4.55 Mwords without degradation in triples

 Number of N-1 electron functions:              12
 Number of N-2 electron functions:              66
 Number of singly external CSFs:               276
 Number of doubly external CSFs:            111411
 Total number of CSFs:                      111687

 Molecular orbitals read from record     2100.2  Type=RHF/CANONICAL (state 1.1)

 Integral transformation finished. Total CPU:   0.09 sec, npass=  1  Memory used:   0.76 MW

 Starting RMP2 calculation

 ITER.      SQ.NORM     CORR.ENERGY   TOTAL ENERGY   ENERGY CHANGE        DEN1      VAR(S)    VAR(P)  DIIS     TIME
   1      1.09727705    -0.38704263   -57.99671550    -0.38704263    -0.00131070  0.19D-04  0.11D-02  1  1     0.11
   2      1.10047345    -0.38847100   -57.99814387    -0.00142837    -0.00002739  0.10D-05  0.34D-04  2  2     0.11
   3      1.10110838    -0.38865057   -57.99832343    -0.00017957    -0.00000015  0.25D-07  0.15D-06  3  3     0.12
   4      1.10113372    -0.38865481   -57.99832768    -0.00000425    -0.00000000  0.13D-08  0.17D-08  4  4     0.12
   5      1.10113427    -0.38865476   -57.99832763     0.00000005    -0.00000000  0.67D-10  0.12D-10  5  5     0.13

 Norm of t1 vector:      0.03889243      S-energy:    -0.00488230      T1 diagnostic:  0.00007831
 Norm of t2 vector:      0.31562897      P-energy:    -0.38377246
                                         Alpha-Beta:  -0.28323933
                                         Alpha-Alpha: -0.06025314
                                         Beta-Beta:   -0.04027999

 Spin contamination <S**2-Sz**2-Sz>     0.00390901
  Reference energy                    -57.609672867428
  RHF-RMP2 correlation energy          -0.388654764824
 !RHF-RMP2 energy                     -57.998327632252

 Starting UCCSD calculation

 ITER.      SQ.NORM     CORR.ENERGY   TOTAL ENERGY   ENERGY CHANGE        DEN1      VAR(S)    VAR(P)  DIIS     TIME
   1      1.10747187    -0.40047707   -58.01014994    -0.40047707    -0.00859757  0.22D-02  0.31D-02  1  1     0.33
   2      1.12563446    -0.40968363   -58.01935650    -0.00920656    -0.00091216  0.37D-03  0.60D-03  2  2     0.52
   3      1.13675127    -0.41194785   -58.02162072    -0.00226422    -0.00015477  0.10D-03  0.87D-04  3  3     0.74
   4      1.14357564    -0.41304957   -58.02272244    -0.00110173    -0.00001419  0.64D-05  0.78D-05  4  4     0.93
   5      1.14559457    -0.41327742   -58.02295029    -0.00022785    -0.00000129  0.23D-06  0.88D-06  5  5     1.14
   6      1.14576133    -0.41328640   -58.02295927    -0.00000898    -0.00000028  0.24D-07  0.21D-06  6  6     1.36
   7      1.14578770    -0.41328953   -58.02296240    -0.00000313    -0.00000005  0.70D-08  0.39D-07  6  1     1.56
   8      1.14575662    -0.41328477   -58.02295764     0.00000476    -0.00000001  0.14D-08  0.69D-08  6  2     1.76
   9      1.14576258    -0.41328632   -58.02295918    -0.00000154    -0.00000000  0.28D-09  0.13D-08  6  3     1.98
  10      1.14576089    -0.41328600   -58.02295887     0.00000031    -0.00000000  0.23D-10  0.14D-09  6  4     2.19

 Norm of t1 vector:      0.11397958      S-energy:    -0.00457476      T1 diagnostic:  0.02155345
                                                                       D1 diagnostic:  0.06883314
 Norm of t2 vector:      0.36437555      P-energy:    -0.40871124
                                         Alpha-Beta:  -0.31068269
                                         Alpha-Alpha: -0.05982718
                                         Beta-Beta:   -0.03820138

 Singles amplitudes (print threshold =  0.500E-01):

         I         SYM. A    A   T(IA) [Alpha-Alpha]

         2         1         8      0.07138295

 Doubles amplitudes (print threshold =  0.500E-01):

         I         J         SYM. A    SYM. B    A         B      T(IJ, AB) [Alpha-Beta]

         2         2         2         2         2         2     -0.05117212
         2         2         3         3         2         2     -0.05117212
         2         2         5         5         2         2     -0.05117212

 Spin contamination <S**2-Sz**2-Sz>     0.00281484

 Memory could be reduced to 4.66 Mwords without degradation in triples
 

  Correlated core orbitals:             1.1       1.2       1.3       1.5
  Orbital energies:                    -2.9960   -1.8939   -1.8939   -1.8939
 
  UCCSD core-core energy               -0.234511396755
  UCCSD core-valence energy            -0.129309016005
  UCCSD valence correlation energy     -0.049465590300
 

 RESULTS
 =======

  Reference energy                    -57.609672867428
  UCCSD singles energy                 -0.004574758422
  UCCSD pair energy                    -0.408711244638
  UCCSD correlation energy             -0.413286003060
  Triples (T) contribution             -0.014462162325
  Total correlation energy             -0.427748165385
 
  RHF-UCCSD energy                    -58.022958870488
  RHF-UCCSD[T] energy                 -58.037615267608
  RHF-UCCSD-T energy                  -58.037388288563
 !RHF-UCCSD(T) energy                 -58.037421032812

 Program statistics:

 Available memory in ccsd:               511999438
 Min. memory needed in ccsd:                379920
 Max. memory used in ccsd:                  508163
 Max. memory used in cckext:                428412 (10 integral passes)
 Max. memory used in cckint:                761504 ( 1 integral passes)



 **********************************************************************************************************************************
 DATASETS  * FILE   NREC   LENGTH (MB)   RECORD NAMES
              1      20       39.16       500      610      700      900      950      970     1000      129      960     1100   
                                          VAR    BASINP    GEOM    SYMINP    ZMAT    AOBASIS   BASIS     P2S    ABASIS      S 
                                         1400     1410     1420     1200     1210     1080     1600     1650     1300     1700   
                                         EKIN       V       ECP      H0       H01     AOSYM     SMH    MOLCAS    ERIS     OPER   

              2       4        2.85       700     1000      520     2100   
                                         GEOM     BASIS   MCVARS     RHF  

 PROGRAMS   *        TOTAL  UCCSD(T)        HF       INT
 CPU TIMES  *        10.92      6.38      0.37      4.06
 REAL TIME  *        27.66 SEC
 DISK USED  *       107.87 MB      
 **********************************************************************************************************************************
 SETTING POSTHF(I)      =       -58.03742103  AU                              
                                                                                                                                                                                                                                                                

        SCF            POSTHF        EKIN           POT
    -57.60967287   -58.03742103   25.86683461   -10.95391895
                                                  

 UCCSD(T)/USERDEF energy=    -58.037421032812

        UCCSD(T)        HF-SCF  
    -58.03742103    -57.60967287
 **********************************************************************************************************************************
 Variable memory released
